 Entering Gaussian System, Link 0=g09
 Input=hexa1.com
 Output=hexa1.log
 Initial command:
 /home/student/g09/l1.exe /home/student/singh/Gau-21274.inp -scrdir=/home/student/singh/
 Entering Link 1 = /home/student/g09/l1.exe PID=     21276.
  
 Copyright (c) 1988,1990,1992,1993,1995,1998,2003,2009,2011,
            Gaussian, Inc.  All Rights Reserved.
  
 This is part of the Gaussian(R) 09 program.  It is based on
 the Gaussian(R) 03 system (copyright 2003, Gaussian, Inc.),
 the Gaussian(R) 98 system (copyright 1998, Gaussian, Inc.),
 the Gaussian(R) 94 system (copyright 1995, Gaussian, Inc.),
 the Gaussian 92(TM) system (copyright 1992, Gaussian, Inc.),
 the Gaussian 90(TM) system (copyright 1990, Gaussian, Inc.),
 the Gaussian 88(TM) system (copyright 1988, Gaussian, Inc.),
 the Gaussian 86(TM) system (copyright 1986, Carnegie Mellon
 University), and the Gaussian 82(TM) system (copyright 1983,
 Carnegie Mellon University). Gaussian is a federally registered
 trademark of Gaussian, Inc.
  
 This software contains proprietary and confidential information,
 including trade secrets, belonging to Gaussian, Inc.
  
 This software is provided under written license and may be
 used, copied, transmitted, or stored only in accord with that
 written license.
  
 The following legend is applicable only to US Government
 contracts under FAR:
  
                    RESTRICTED RIGHTS LEGEND
  
 Use, reproduction and disclosure by the US Government is
 subject to restrictions as set forth in subparagraphs (a)
 and (c) of the Commercial Computer Software - Restricted
 Rights clause in FAR 52.227-19.
  
 Gaussian, Inc.
 340 Quinnipiac St., Bldg. 40, Wallingford CT 06492
  
  
 ---------------------------------------------------------------
 Warning -- This program may not be used in any manner that
 competes with the business of Gaussian, Inc. or will provide
 assistance to any competitor of Gaussian, Inc.  The licensee
 of this program is prohibited from giving any competitor of
 Gaussian, Inc. access to this program.  By using this program,
 the user acknowledges that Gaussian, Inc. is engaged in the
 business of creating and licensing software in the field of
 computational chemistry and represents and warrants to the
 licensee that it is not a competitor of Gaussian, Inc. and that
 it will not use this program in any manner prohibited above.
 ---------------------------------------------------------------
  

 Cite this work as:
 Gaussian 09, Revision C.01,
 M. J. Frisch, G. W. Trucks, H. B. Schlegel, G. E. Scuseria, 
 M. A. Robb, J. R. Cheeseman, G. Scalmani, V. Barone, B. Mennucci, 
 G. A. Petersson, H. Nakatsuji, M. Caricato, X. Li, H. P. Hratchian, 
 A. F. Izmaylov, J. Bloino, G. Zheng, J. L. Sonnenberg, M. Hada, 
 M. Ehara, K. Toyota, R. Fukuda, J. Hasegawa, M. Ishida, T. Nakajima, 
 Y. Honda, O. Kitao, H. Nakai, T. Vreven, J. A. Montgomery, Jr., 
 J. E. Peralta, F. Ogliaro, M. Bearpark, J. J. Heyd, E. Brothers, 
 K. N. Kudin, V. N. Staroverov, T. Keith, R. Kobayashi, J. Normand, 
 K. Raghavachari, A. Rendell, J. C. Burant, S. S. Iyengar, J. Tomasi, 
 M. Cossi, N. Rega, J. M. Millam, M. Klene, J. E. Knox, J. B. Cross, 
 V. Bakken, C. Adamo, J. Jaramillo, R. Gomperts, R. E. Stratmann, 
 O. Yazyev, A. J. Austin, R. Cammi, C. Pomelli, J. W. Ochterski, 
 R. L. Martin, K. Morokuma, V. G. Zakrzewski, G. A. Voth, 
 P. Salvador, J. J. Dannenberg, S. Dapprich, A. D. Daniels, 
 O. Farkas, J. B. Foresman, J. V. Ortiz, J. Cioslowski, 
 and D. J. Fox, Gaussian, Inc., Wallingford CT, 2010.
 
 ******************************************
 Gaussian 09:  EM64L-G09RevC.01 23-Sep-2011
                 2-Mar-2021 
 ******************************************
 %chk=hexa1.chk
 ----------------------------------------
 # opt freq b3lyp/6-31* geom=connectivity
 ----------------------------------------
 1/14=-1,18=20,19=15,26=3,38=1,57=2/1,3;
 2/9=110,12=2,17=6,18=5,40=1/2;
 3/5=1,6=6,7=1,11=2,16=1,25=1,30=1,71=1,74=-5/1,2,3;
 4//1;
 5/5=2,38=5/2;
 6/7=2,8=2,9=2,10=2,28=1/1;
 7//1,2,3,16;
 1/14=-1,18=20,19=15/3(2);
 2/9=110/2;
 99//99;
 2/9=110/2;
 3/5=1,6=6,7=1,11=2,16=1,25=1,30=1,71=1,74=-5/1,2,3;
 4/5=5,16=3/1;
 5/5=2,38=5/2;
 7//1,2,3,16;
 1/14=-1,18=20,19=15/3(-5);
 2/9=110/2;
 6/7=2,8=2,9=2,10=2,19=2,28=1/1;
 99/9=1/99;
 -------------------
 Title Card Required
 -------------------
 Charge =  0 Multiplicity = 1
 Symbolic Z-Matrix:
 C                    -3.85965  -1.19883   0. 
 H                    -3.32649  -2.12654   0. 
 H                    -4.92965  -1.19883   0. 
 C                    -3.18437  -0.02385   0. 
 H                    -3.71754   0.90385   0. 
 C                    -1.64437  -0.02385   0. 
 H                    -1.11121  -0.95156   0. 
 C                    -0.96213   1.14709   0. 
 H                    -1.48977   2.07795   0. 
 C                     0.57784   1.13794   0. 
 H                     1.10548   0.20709   0. 
 C                     1.26703   2.30481   0. 
 H                     0.74493   3.23879   0. 
 H                     2.33695   2.2921    0. 
 

 GradGradGradGradGradGradGradGradGradGradGradGradGradGradGradGradGradGrad
 Berny optimization.
 Initialization pass.
                           ----------------------------
                           !    Initial Parameters    !
                           ! (Angstroms and Degrees)  !
 --------------------------                            --------------------------
 ! Name  Definition              Value          Derivative Info.                !
 --------------------------------------------------------------------------------
 ! R1    R(1,2)                  1.07           estimate D2E/DX2                !
 ! R2    R(1,3)                  1.07           estimate D2E/DX2                !
 ! R3    R(1,4)                  1.3552         estimate D2E/DX2                !
 ! R4    R(4,5)                  1.07           estimate D2E/DX2                !
 ! R5    R(4,6)                  1.54           estimate D2E/DX2                !
 ! R6    R(6,7)                  1.07           estimate D2E/DX2                !
 ! R7    R(6,8)                  1.3552         estimate D2E/DX2                !
 ! R8    R(8,9)                  1.07           estimate D2E/DX2                !
 ! R9    R(8,10)                 1.54           estimate D2E/DX2                !
 ! R10   R(10,11)                1.07           estimate D2E/DX2                !
 ! R11   R(10,12)                1.3552         estimate D2E/DX2                !
 ! R12   R(12,13)                1.07           estimate D2E/DX2                !
 ! R13   R(12,14)                1.07           estimate D2E/DX2                !
 ! A1    A(2,1,3)              119.8865         estimate D2E/DX2                !
 ! A2    A(2,1,4)              120.2269         estimate D2E/DX2                !
 ! A3    A(3,1,4)              119.8865         estimate D2E/DX2                !
 ! A4    A(1,4,5)              120.2269         estimate D2E/DX2                !
 ! A5    A(1,4,6)              119.8865         estimate D2E/DX2                !
 ! A6    A(5,4,6)              119.8865         estimate D2E/DX2                !
 ! A7    A(4,6,7)              119.8865         estimate D2E/DX2                !
 ! A8    A(4,6,8)              120.2269         estimate D2E/DX2                !
 ! A9    A(7,6,8)              119.8865         estimate D2E/DX2                !
 ! A10   A(6,8,9)              120.2269         estimate D2E/DX2                !
 ! A11   A(6,8,10)             119.8865         estimate D2E/DX2                !
 ! A12   A(9,8,10)             119.8865         estimate D2E/DX2                !
 ! A13   A(8,10,11)            119.8865         estimate D2E/DX2                !
 ! A14   A(8,10,12)            120.2269         estimate D2E/DX2                !
 ! A15   A(11,10,12)           119.8865         estimate D2E/DX2                !
 ! A16   A(10,12,13)           120.2269         estimate D2E/DX2                !
 ! A17   A(10,12,14)           119.8865         estimate D2E/DX2                !
 ! A18   A(13,12,14)           119.8865         estimate D2E/DX2                !
 ! D1    D(2,1,4,5)            180.0            estimate D2E/DX2                !
 ! D2    D(2,1,4,6)              0.0            estimate D2E/DX2                !
 ! D3    D(3,1,4,5)              0.0            estimate D2E/DX2                !
 ! D4    D(3,1,4,6)            180.0            estimate D2E/DX2                !
 ! D5    D(1,4,6,7)              0.0            estimate D2E/DX2                !
 ! D6    D(1,4,6,8)            180.0            estimate D2E/DX2                !
 ! D7    D(5,4,6,7)            180.0            estimate D2E/DX2                !
 ! D8    D(5,4,6,8)              0.0            estimate D2E/DX2                !
 ! D9    D(4,6,8,9)              0.0            estimate D2E/DX2                !
 ! D10   D(4,6,8,10)           180.0            estimate D2E/DX2                !
 ! D11   D(7,6,8,9)            180.0            estimate D2E/DX2                !
 ! D12   D(7,6,8,10)             0.0            estimate D2E/DX2                !
 ! D13   D(6,8,10,11)            0.0            estimate D2E/DX2                !
 ! D14   D(6,8,10,12)          180.0            estimate D2E/DX2                !
 ! D15   D(9,8,10,11)          180.0            estimate D2E/DX2                !
 ! D16   D(9,8,10,12)            0.0            estimate D2E/DX2                !
 ! D17   D(8,10,12,13)           0.0            estimate D2E/DX2                !
 ! D18   D(8,10,12,14)         180.0            estimate D2E/DX2                !
 ! D19   D(11,10,12,13)        180.0            estimate D2E/DX2                !
 ! D20   D(11,10,12,14)          0.0            estimate D2E/DX2                !
 --------------------------------------------------------------------------------
 Trust Radius=3.00D-01 FncErr=1.00D-07 GrdErr=1.00D-06
 Number of steps in this run=     61 maximum allowed number of steps=    100.
 GradGradGradGradGradGradGradGradGradGradGradGradGradGradGradGradGradGrad

                          Input orientation:                          
 ---------------------------------------------------------------------
 Center     Atomic      Atomic             Coordinates (Angstroms)
 Number     Number       Type             X           Y           Z
 ---------------------------------------------------------------------
      1          6           0       -3.859649   -1.198830    0.000000
      2          1           0       -3.326486   -2.126535    0.000000
      3          1           0       -4.929649   -1.198830    0.000000
      4          6           0       -3.184375   -0.023853    0.000000
      5          1           0       -3.717539    0.903852    0.000000
      6          6           0       -1.644375   -0.023853    0.000000
      7          1           0       -1.111211   -0.951558    0.000000
      8          6           0       -0.962132    1.147091    0.000000
      9          1           0       -1.489774    2.077948    0.000000
     10          6           0        0.577841    1.137942    0.000000
     11          1           0        1.105484    0.207085    0.000000
     12          6           0        1.267030    2.304812    0.000000
     13          1           0        0.744927    3.238787    0.000000
     14          1           0        2.336954    2.292098    0.000000
 ---------------------------------------------------------------------
                    Distance matrix (angstroms):
                    1          2          3          4          5
     1  C    0.000000
     2  H    1.070000   0.000000
     3  H    1.070000   1.852234   0.000000
     4  C    1.355200   2.107479   2.103938   0.000000
     5  H    2.107479   3.055514   2.427032   1.070000   0.000000
     6  C    2.507591   2.692725   3.489068   1.540000   2.271265
     7  H    2.759539   2.507591   3.826436   2.271265   3.199295
     8  C    3.728131   4.038168   4.609181   2.511867   2.766123
     9  H    4.043956   4.588157   4.750791   2.699859   2.518221
    10  C    5.015160   5.089261   5.982721   3.937517   4.301754
    11  H    5.160343   5.008806   6.196727   4.296070   4.873092
    12  C    6.209537   6.382572   7.118591   5.023712   5.177703
    13  H    6.394886   6.735212   7.203698   5.107273   5.036420
    14  H    7.112276   7.183235   8.061644   5.987379   6.211611
                    6          7          8          9         10
     6  C    0.000000
     7  H    1.070000   0.000000
     8  C    1.355200   2.103938   0.000000
     9  H    2.107479   3.053066   1.070000   0.000000
    10  C    2.507591   2.686802   1.540000   2.271265   0.000000
    11  H    2.759539   2.501238   2.271265   3.199295   1.070000
    12  C    3.728131   4.032366   2.511867   2.766123   1.355200
    13  H    4.043956   4.583038   2.699859   2.518221   2.107479
    14  H    4.605932   4.734041   3.492135   3.832716   2.103938
                   11         12         13         14
    11  H    0.000000
    12  C    2.103938   0.000000
    13  H    3.053066   1.070000   0.000000
    14  H    2.421527   1.070000   1.852234   0.000000
 Stoichiometry    C6H8
 Framework group  CS[SG(C6H8)]
 Deg. of freedom    25
 Full point group                 CS      NOp   2
 Largest Abelian subgroup         CS      NOp   2
 Largest concise Abelian subgroup C1      NOp   1
                         Standard orientation:                         
 ---------------------------------------------------------------------
 Center     Atomic      Atomic             Coordinates (Angstroms)
 Number     Number       Type             X           Y           Z
 ---------------------------------------------------------------------
      1          6           0       -1.307446    2.814682    0.000000
      2          1           0       -0.375989    3.341262    0.000000
      3          1           0       -2.228129    3.359882    0.000000
      4          6           0       -1.325095    1.459597    0.000000
      5          1           0       -2.256552    0.933016    0.000000
      6          6           0        0.000000    0.674916    0.000000
      7          1           0        0.931457    1.201497    0.000000
      8          6           0       -0.009597   -0.680250    0.000000
      9          1           0       -0.937910   -1.212355    0.000000
     10          6           0        1.320136   -1.457043    0.000000
     11          1           0        2.248449   -0.924938    0.000000
     12          6           0        1.318591   -2.812243    0.000000
     13          1           0        0.393456   -3.349854    0.000000
     14          1           0        2.245687   -3.346464    0.000000
 ---------------------------------------------------------------------
 Rotational constants (GHZ):     24.3012217      1.3063230      1.2396833
 Standard basis: 6-31G(d) (6D, 7F)
 There are    82 symmetry adapted basis functions of A'  symmetry.
 There are    24 symmetry adapted basis functions of A"  symmetry.
 Integral buffers will be    131072 words long.
 Raffenetti 2 integral format.
 Two-electron integral symmetry is turned on.
   106 basis functions,   200 primitive gaussians,   106 cartesian basis functions
    22 alpha electrons       22 beta electrons
       nuclear repulsion energy       191.1474013585 Hartrees.
 NAtoms=   14 NActive=   14 NUniq=   14 SFac= 1.00D+00 NAtFMM=   60 NAOKFM=F Big=F
 One-electron integrals computed using PRISM.
 NBasis=   106 RedAO= T  NBF=    82    24
 NBsUse=   106 1.00D-06 NBFU=    82    24
 Harris functional with IExCor=  402 diagonalized for initial guess.
 ExpMin= 1.61D-01 ExpMax= 3.05D+03 ExpMxC= 4.57D+02 IAcc=1 IRadAn=         1 AccDes= 0.00D+00
 HarFok:  IExCor=  402 AccDes= 0.00D+00 IRadAn=         1 IDoV= 1
 ScaDFX=  1.000000  1.000000  1.000000  1.000000
 FoFCou: FMM=F IPFlag=           0 FMFlag=      100000 FMFlg1=           0
         NFxFlg=           0 DoJE=T BraDBF=F KetDBF=T FulRan=T
         Omega=  0.000000  0.000000  1.000000  0.000000  0.000000 ICntrl=     500 IOpCl=  0
         NMat0=    1 NMatS0=    1 NMatT0=    0 NMatD0=    1 NMtDS0=    0 NMtDT0=    0
         I1Cent=           4 NGrid=           0.
 Petite list used in FoFCou.
 Initial guess orbital symmetries:
       Occupied  (A') (A') (A') (A') (A') (A') (A') (A') (A') (A')
                 (A') (A') (A') (A') (A') (A') (A') (A') (A') (A")
                 (A") (A")
       Virtual   (A") (A") (A") (A') (A') (A') (A') (A') (A') (A')
                 (A') (A') (A') (A') (A') (A') (A') (A') (A") (A")
                 (A') (A") (A') (A') (A") (A') (A') (A') (A") (A")
                 (A') (A') (A') (A') (A') (A') (A') (A') (A') (A')
                 (A') (A') (A') (A') (A') (A') (A") (A") (A') (A")
                 (A') (A") (A") (A") (A") (A') (A') (A') (A') (A")
                 (A') (A') (A') (A') (A") (A') (A') (A') (A") (A")
                 (A") (A') (A') (A') (A') (A') (A') (A') (A') (A')
                 (A') (A') (A') (A')
 The electronic state of the initial guess is 1-A'.
 Requested convergence on RMS density matrix=1.00D-08 within 128 cycles.
 Requested convergence on MAX density matrix=1.00D-06.
 Requested convergence on             energy=1.00D-06.
 No special actions if energy rises.
 Keep R1 ints in memory in canonical form, NReq=17180070.
 Integral accuracy reduced to 1.0D-05 until final iterations.
 Initial convergence to 1.0D-05 achieved.  Increase integral accuracy.
 SCF Done:  E(RB3LYP) =  -233.384822068     A.U. after   13 cycles
             Convg  =    0.5493D-08             -V/T =  2.0108

 **********************************************************************

            Population analysis using the SCF density.

 **********************************************************************

 Orbital symmetries:
       Occupied  (A') (A') (A') (A') (A') (A') (A') (A') (A') (A')
                 (A') (A') (A') (A') (A') (A') (A') (A') (A') (A")
                 (A") (A")
       Virtual   (A") (A") (A") (A') (A') (A') (A') (A') (A') (A')
                 (A') (A') (A') (A') (A') (A') (A') (A') (A") (A")
                 (A') (A') (A") (A") (A') (A') (A') (A') (A") (A")
                 (A') (A') (A') (A') (A') (A') (A') (A') (A') (A')
                 (A') (A') (A') (A') (A') (A') (A') (A") (A") (A')
                 (A") (A") (A") (A") (A") (A') (A') (A') (A') (A")
                 (A') (A') (A') (A') (A") (A') (A') (A') (A") (A")
                 (A") (A') (A') (A') (A') (A') (A') (A') (A') (A')
                 (A') (A') (A') (A')
 The electronic state is 1-A'.
 Alpha  occ. eigenvalues --  -10.19760 -10.19733 -10.19568 -10.19494 -10.18014
 Alpha  occ. eigenvalues --  -10.17984  -0.80343  -0.76594  -0.71616  -0.60345
 Alpha  occ. eigenvalues --   -0.56277  -0.55647  -0.47596  -0.45973  -0.42201
 Alpha  occ. eigenvalues --   -0.40381  -0.38280  -0.37129  -0.33622  -0.32509
 Alpha  occ. eigenvalues --   -0.27751  -0.21168
 Alpha virt. eigenvalues --   -0.03461   0.03925   0.08454   0.10810   0.12561
 Alpha virt. eigenvalues --    0.13260   0.14501   0.15699   0.17645   0.19848
 Alpha virt. eigenvalues --    0.20572   0.29502   0.32629   0.32767   0.35991
 Alpha virt. eigenvalues --    0.39112   0.47928   0.49313   0.52905   0.55662
 Alpha virt. eigenvalues --    0.56887   0.60466   0.60484   0.61051   0.61298
 Alpha virt. eigenvalues --    0.64302   0.67021   0.68925   0.69524   0.70393
 Alpha virt. eigenvalues --    0.83640   0.86419   0.87303   0.88256   0.89127
 Alpha virt. eigenvalues --    0.89330   0.93066   0.94482   0.97495   0.97933
 Alpha virt. eigenvalues --    1.05539   1.06550   1.08889   1.13850   1.25143
 Alpha virt. eigenvalues --    1.28144   1.32685   1.34876   1.36196   1.43328
 Alpha virt. eigenvalues --    1.43890   1.49661   1.58353   1.68998   1.73667
 Alpha virt. eigenvalues --    1.76136   1.76336   1.91294   1.98247   2.00001
 Alpha virt. eigenvalues --    2.01477   2.01842   2.12253   2.16730   2.17273
 Alpha virt. eigenvalues --    2.23021   2.30079   2.32046   2.38133   2.41720
 Alpha virt. eigenvalues --    2.41858   2.43975   2.63276   2.73419   2.78562
 Alpha virt. eigenvalues --    2.79914   2.96793   2.97068   4.05599   4.08067
 Alpha virt. eigenvalues --    4.14814   4.19807   4.35088   4.47957
          Condensed to atoms (all electrons):
              1          2          3          4          5          6
     1  C    5.056230   0.372766   0.365372   0.629555  -0.051607  -0.026613
     2  H    0.372766   0.561033  -0.040468  -0.036120   0.005708  -0.011370
     3  H    0.365372  -0.040468   0.559497  -0.024301  -0.006562   0.003903
     4  C    0.629555  -0.036120  -0.024301   4.799254   0.368906   0.407961
     5  H   -0.051607   0.005708  -0.006562   0.368906   0.591177  -0.044668
     6  C   -0.026613  -0.011370   0.003903   0.407961  -0.044668   4.900327
     7  H   -0.003498   0.004410  -0.000012  -0.043525   0.003702   0.365600
     8  C    0.001937   0.000451  -0.000169  -0.018241  -0.003818   0.603904
     9  H    0.000372   0.000014  -0.000006  -0.008135   0.003911  -0.052123
    10  C   -0.000185  -0.000003   0.000002   0.003424   0.000126  -0.017711
    11  H   -0.000003   0.000002   0.000000   0.000133   0.000004  -0.003866
    12  C    0.000003   0.000000   0.000000  -0.000184  -0.000002   0.001880
    13  H    0.000000   0.000000   0.000000  -0.000002   0.000001   0.000445
    14  H    0.000000   0.000000   0.000000   0.000002   0.000000  -0.000166
              7          8          9         10         11         12
     1  C   -0.003498   0.001937   0.000372  -0.000185  -0.000003   0.000003
     2  H    0.004410   0.000451   0.000014  -0.000003   0.000002   0.000000
     3  H   -0.000012  -0.000169  -0.000006   0.000002   0.000000   0.000000
     4  C   -0.043525  -0.018241  -0.008135   0.003424   0.000133  -0.000184
     5  H    0.003702  -0.003818   0.003911   0.000126   0.000004  -0.000002
     6  C    0.365600   0.603904  -0.052123  -0.017711  -0.003866   0.001880
     7  H    0.591941  -0.052324   0.005964  -0.008299   0.004025   0.000387
     8  C   -0.052324   4.900640   0.365538   0.407966  -0.044847  -0.026713
     9  H    0.005964   0.365538   0.591622  -0.043432   0.003705  -0.003452
    10  C   -0.008299   0.407966  -0.043432   4.798841   0.368931   0.629779
    11  H    0.004025  -0.044847   0.003705   0.368931   0.592035  -0.051854
    12  C    0.000387  -0.026713  -0.003452   0.629779  -0.051854   5.056671
    13  H    0.000014  -0.011299   0.004353  -0.036126   0.005753   0.372686
    14  H   -0.000006   0.003904  -0.000017  -0.024106  -0.006693   0.365447
             13         14
     1  C    0.000000   0.000000
     2  H    0.000000   0.000000
     3  H    0.000000   0.000000
     4  C   -0.000002   0.000002
     5  H    0.000001   0.000000
     6  C    0.000445  -0.000166
     7  H    0.000014  -0.000006
     8  C   -0.011299   0.003904
     9  H    0.004353  -0.000017
    10  C   -0.036126  -0.024106
    11  H    0.005753  -0.006693
    12  C    0.372686   0.365447
    13  H    0.561468  -0.040519
    14  H   -0.040519   0.559453
 Mulliken atomic charges:
              1
     1  C   -0.344330
     2  H    0.143577
     3  H    0.142743
     4  C   -0.078727
     5  H    0.133120
     6  C   -0.127504
     7  H    0.131621
     8  C   -0.126932
     9  H    0.131685
    10  C   -0.079208
    11  H    0.132674
    12  C   -0.344646
    13  H    0.143225
    14  H    0.142702
 Sum of Mulliken atomic charges =   0.00000
 Mulliken charges with hydrogens summed into heavy atoms:
              1
     1  C   -0.058010
     4  C    0.054393
     6  C    0.004117
     8  C    0.004753
    10  C    0.053467
    12  C   -0.058719
 Sum of Mulliken charges with hydrogens summed into heavy atoms =   0.00000
 Electronic spatial extent (au):  <R**2>=            935.0256
 Charge=              0.0000 electrons
 Dipole moment (field-independent basis, Debye):
    X=             -0.0069    Y=              0.0094    Z=              0.0000  Tot=              0.0117
 Quadrupole moment (field-independent basis, Debye-Ang):
   XX=            -32.5204   YY=            -34.1711   ZZ=            -41.0195
   XY=              0.5628   XZ=              0.0000   YZ=              0.0000
 Traceless Quadrupole moment (field-independent basis, Debye-Ang):
   XX=              3.3833   YY=              1.7326   ZZ=             -5.1159
   XY=              0.5628   XZ=              0.0000   YZ=              0.0000
 Octapole moment (field-independent basis, Debye-Ang**2):
  XXX=             -0.0222  YYY=              0.0892  ZZZ=              0.0000  XYY=             -0.0473
  XXY=              0.0050  XXZ=              0.0000  XZZ=             -0.0066  YZZ=              0.0092
  YYZ=              0.0000  XYZ=              0.0000
 Hexadecapole moment (field-independent basis, Debye-Ang**3):
 XXXX=           -313.6460 YYYY=           -856.1689 ZZZZ=            -42.8397 XXXY=            194.9494
 XXXZ=              0.0000 YYYX=            204.1509 YYYZ=              0.0000 ZZZX=              0.0000
 ZZZY=              0.0000 XXYY=           -187.8010 XXZZ=            -71.2751 YYZZ=           -176.1261
 XXYZ=              0.0000 YYXZ=              0.0000 ZZXY=             81.7821
 N-N= 1.911474013585D+02 E-N=-9.216858352920D+02  KE= 2.308806381271D+02
 Symmetry A'   KE= 2.245874958797D+02
 Symmetry A"   KE= 6.293142247350D+00
 Calling FoFJK, ICntrl=      2127 FMM=F ISym2X=1 I1Cent= 0 IOpClX= 0 NMat=1 NMatS=1 NMatT=0.
 ***** Axes restored to original set *****
 -------------------------------------------------------------------
 Center     Atomic                   Forces (Hartrees/Bohr)
 Number     Number              X              Y              Z
 -------------------------------------------------------------------
      1        6           0.010893101    0.031162049    0.000000000
      2        1           0.002439362   -0.011885507    0.000000000
      3        1          -0.011558781   -0.004679266    0.000000000
      4        6           0.043885757   -0.043256732    0.000000000
      5        1          -0.001461797    0.013072378    0.000000000
      6        6          -0.050441527    0.038685047    0.000000000
      7        1           0.001306907   -0.013075137    0.000000000
      8        6           0.050595302   -0.038723099    0.000000000
      9        1          -0.001512576    0.012890995    0.000000000
     10        6          -0.042612600    0.043356448    0.000000000
     11        1           0.001082930   -0.013359650    0.000000000
     12        6          -0.011907980   -0.030668117    0.000000000
     13        1          -0.002281285    0.011988504    0.000000000
     14        1           0.011573187    0.004492086    0.000000000
 -------------------------------------------------------------------
 Cartesian Forces:  Max     0.050595302 RMS     0.021305377

 GradGradGradGradGradGradGradGradGradGradGradGradGradGradGradGradGradGrad
 Berny optimization.
 Internal  Forces:  Max     0.044253248 RMS     0.011344695
 Search for a local minimum.
 Step number   1 out of a maximum of   61
 All quantities printed in internal units (Hartrees-Bohrs-Radians)
 Mixed Optimization -- RFO/linear search
 Second derivative matrix not updated -- first step.
 ITU=  0
     Eigenvalues ---    0.00237   0.00237   0.01459   0.01459   0.01463
     Eigenvalues ---    0.01463   0.02681   0.02681   0.02681   0.02681
     Eigenvalues ---    0.02681   0.16000   0.16000   0.16000   0.16000
     Eigenvalues ---    0.16000   0.16000   0.16000   0.16000   0.22000
     Eigenvalues ---    0.22000   0.22000   0.22000   0.28519   0.28519
     Eigenvalues ---    0.37230   0.37230   0.37230   0.37230   0.37230
     Eigenvalues ---    0.37230   0.37230   0.37230   0.53930   0.53930
     Eigenvalues ---    0.53930
 RFO step:  Lambda=-2.14590029D-02 EMin= 2.36824102D-03
 Linear search not attempted -- first point.
 Iteration  1 RMS(Cart)=  0.04798272 RMS(Int)=  0.00068451
 Iteration  2 RMS(Cart)=  0.00156912 RMS(Int)=  0.00000023
 Iteration  3 RMS(Cart)=  0.00000029 RMS(Int)=  0.00000000
 ClnCor:  largest displacement from symmetrization is 4.53D-09 for atom    12.
 Variable       Old X    -DE/DX   Delta X   Delta X   Delta X     New X
                                 (Linear)    (Quad)   (Total)
    R1        2.02201   0.01153   0.00000   0.02927   0.02927   2.05128
    R2        2.02201   0.01155   0.00000   0.02935   0.02935   2.05135
    R3        2.56096  -0.01353   0.00000  -0.02413  -0.02413   2.53683
    R4        2.02201   0.01206   0.00000   0.03062   0.03062   2.05263
    R5        2.91018  -0.04421   0.00000  -0.14418  -0.14418   2.76600
    R6        2.02201   0.01199   0.00000   0.03045   0.03045   2.05245
    R7        2.56096  -0.00616   0.00000  -0.01099  -0.01099   2.54997
    R8        2.02201   0.01196   0.00000   0.03038   0.03038   2.05239
    R9        2.91018  -0.04425   0.00000  -0.14431  -0.14431   2.76587
   R10        2.02201   0.01215   0.00000   0.03086   0.03086   2.05287
   R11        2.56096  -0.01354   0.00000  -0.02414  -0.02414   2.53682
   R12        2.02201   0.01158   0.00000   0.02942   0.02942   2.05143
   R13        2.02201   0.01152   0.00000   0.02924   0.02924   2.05125
    A1        2.09241  -0.00572   0.00000  -0.03154  -0.03154   2.06087
    A2        2.09836   0.00197   0.00000   0.01085   0.01085   2.10921
    A3        2.09241   0.00375   0.00000   0.02069   0.02069   2.11310
    A4        2.09836  -0.00075   0.00000   0.00415   0.00415   2.10251
    A5        2.09241   0.01210   0.00000   0.05011   0.05011   2.14253
    A6        2.09241  -0.01135   0.00000  -0.05427  -0.05427   2.03815
    A7        2.09241  -0.01096   0.00000  -0.05282  -0.05282   2.03960
    A8        2.09836   0.01103   0.00000   0.04570   0.04570   2.14406
    A9        2.09241  -0.00008   0.00000   0.00712   0.00712   2.09953
   A10        2.09836  -0.00082   0.00000   0.00357   0.00357   2.10192
   A11        2.09241   0.01183   0.00000   0.04900   0.04900   2.14142
   A12        2.09241  -0.01101   0.00000  -0.05257  -0.05257   2.03985
   A13        2.09241  -0.01130   0.00000  -0.05460  -0.05460   2.03781
   A14        2.09836   0.01119   0.00000   0.04633   0.04633   2.14468
   A15        2.09241   0.00011   0.00000   0.00827   0.00827   2.10069
   A16        2.09836   0.00207   0.00000   0.01142   0.01142   2.10977
   A17        2.09241   0.00365   0.00000   0.02013   0.02013   2.11254
   A18        2.09241  -0.00572   0.00000  -0.03155  -0.03155   2.06087
    D1        3.14159   0.00000   0.00000   0.00000   0.00000   3.14159
    D2        0.00000   0.00000   0.00000   0.00000   0.00000   0.00000
    D3        0.00000   0.00000   0.00000   0.00000   0.00000   0.00000
    D4        3.14159   0.00000   0.00000   0.00000   0.00000   3.14159
    D5        0.00000   0.00000   0.00000   0.00000   0.00000   0.00000
    D6        3.14159   0.00000   0.00000   0.00000   0.00000   3.14159
    D7        3.14159   0.00000   0.00000   0.00000   0.00000   3.14159
    D8        0.00000   0.00000   0.00000   0.00000   0.00000   0.00000
    D9        0.00000   0.00000   0.00000   0.00000   0.00000   0.00000
   D10        3.14159   0.00000   0.00000   0.00000   0.00000   3.14159
   D11        3.14159   0.00000   0.00000   0.00000   0.00000   3.14159
   D12        0.00000   0.00000   0.00000   0.00000   0.00000   0.00000
   D13        0.00000   0.00000   0.00000   0.00000   0.00000   0.00000
   D14        3.14159   0.00000   0.00000   0.00000   0.00000   3.14159
   D15        3.14159   0.00000   0.00000   0.00000   0.00000   3.14159
   D16        0.00000   0.00000   0.00000   0.00000   0.00000   0.00000
   D17        0.00000   0.00000   0.00000   0.00000   0.00000   0.00000
   D18        3.14159   0.00000   0.00000   0.00000   0.00000   3.14159
   D19        3.14159   0.00000   0.00000   0.00000   0.00000   3.14159
   D20        0.00000   0.00000   0.00000   0.00000   0.00000   0.00000
         Item               Value     Threshold  Converged?
 Maximum Force            0.044253     0.000450     NO 
 RMS     Force            0.011345     0.000300     NO 
 Maximum Displacement     0.170795     0.001800     NO 
 RMS     Displacement     0.048803     0.001200     NO 
 Predicted change in Energy=-1.152269D-02
 GradGradGradGradGradGradGradGradGradGradGradGradGradGradGradGradGradGrad

                          Input orientation:                          
 ---------------------------------------------------------------------
 Center     Atomic      Atomic             Coordinates (Angstroms)
 Number     Number       Type             X           Y           Z
 ---------------------------------------------------------------------
      1          6           0       -3.824648   -1.185049    0.000000
      2          1           0       -3.323904   -2.148141    0.000000
      3          1           0       -4.910116   -1.173532    0.000000
      4          6           0       -3.119641   -0.042645    0.000000
      5          1           0       -3.627158    0.917702    0.000000
      6          6           0       -1.656196   -0.015106    0.000000
      7          1           0       -1.147330   -0.974635    0.000000
      8          6           0       -0.945782    1.132133    0.000000
      9          1           0       -1.452335    2.092843    0.000000
     10          6           0        0.517659    1.155806    0.000000
     11          1           0        1.022378    0.193842    0.000000
     12          6           0        1.228131    2.294811    0.000000
     13          1           0        0.732520    3.260642    0.000000
     14          1           0        2.313468    2.277483    0.000000
 ---------------------------------------------------------------------
                    Distance matrix (angstroms):
                    1          2          3          4          5
     1  C    0.000000
     2  H    1.085492   0.000000
     3  H    1.085529   1.861701   0.000000
     4  C    1.342431   2.115381   2.117712   0.000000
     5  H    2.112005   3.080805   2.453415   1.086205   0.000000
     6  C    2.463930   2.707598   3.453976   1.463704   2.180556
     7  H    2.685574   2.472770   3.768039   2.181425   3.119373
     8  C    3.695565   4.051625   4.586069   2.470985   2.689936
     9  H    4.046288   4.635593   4.756622   2.709284   2.472005
    10  C    4.933076   5.066920   5.906484   3.829652   4.151650
    11  H    5.039346   4.937110   6.088037   4.148764   4.705545
    12  C    6.135146   6.360885   7.050354   4.936277   5.046807
    13  H    6.366470   6.760881   7.176436   5.074529   4.949359
    14  H    7.047383   7.167016   8.005603   5.907764   6.094263
                    6          7          8          9         10
     6  C    0.000000
     7  H    1.086112   0.000000
     8  C    1.349387   2.116387   0.000000
     9  H    2.117784   3.082605   1.086076   0.000000
    10  C    2.469146   2.703880   1.463633   2.181494   0.000000
    11  H    2.686711   2.464340   2.180377   3.119361   1.086331
    12  C    3.695276   4.041299   2.465304   2.688065   1.342425
    13  H    4.054194   4.633725   2.710581   2.477366   2.115774
    14  H    4.584125   4.749042   3.454641   3.770327   2.117331
                   11         12         13         14
    11  H    0.000000
    12  C    2.111021   0.000000
    13  H    3.080467   1.085568   0.000000
    14  H    2.451219   1.085475   1.861719   0.000000
 Stoichiometry    C6H8
 Framework group  CS[SG(C6H8)]
 Deg. of freedom    25
 Full point group                 CS      NOp   2
 Largest Abelian subgroup         CS      NOp   2
 Largest concise Abelian subgroup C1      NOp   1
                         Standard orientation:                         
 ---------------------------------------------------------------------
 Center     Atomic      Atomic             Coordinates (Angstroms)
 Number     Number       Type             X           Y           Z
 ---------------------------------------------------------------------
      1          6           0       -1.221339    2.813485    0.000000
      2          1           0       -0.286932    3.365911    0.000000
      3          1           0       -2.148594    3.377906    0.000000
      4          6           0       -1.227359    1.471068    0.000000
      5          1           0       -2.166062    0.924553    0.000000
      6          6           0        0.000000    0.673559    0.000000
      7          1           0        0.939414    1.218665    0.000000
      8          6           0       -0.003991   -0.675822    0.000000
      9          1           0       -0.942067   -1.223154    0.000000
     10          6           0        1.225410   -1.470047    0.000000
     11          1           0        2.162594   -0.920681    0.000000
     12          6           0        1.225825   -2.812472    0.000000
     13          1           0        0.294325   -3.369936    0.000000
     14          1           0        2.156044   -3.371892    0.000000
 ---------------------------------------------------------------------
 Rotational constants (GHZ):     25.9098686      1.3421906      1.2760864
 Standard basis: 6-31G(d) (6D, 7F)
 There are    82 symmetry adapted basis functions of A'  symmetry.
 There are    24 symmetry adapted basis functions of A"  symmetry.
 Integral buffers will be    131072 words long.
 Raffenetti 2 integral format.
 Two-electron integral symmetry is turned on.
   106 basis functions,   200 primitive gaussians,   106 cartesian basis functions
    22 alpha electrons       22 beta electrons
       nuclear repulsion energy       193.7750985340 Hartrees.
 NAtoms=   14 NActive=   14 NUniq=   14 SFac= 1.00D+00 NAtFMM=   60 NAOKFM=F Big=F
 One-electron integrals computed using PRISM.
 NBasis=   106 RedAO= T  NBF=    82    24
 NBsUse=   106 1.00D-06 NBFU=    82    24
 Initial guess read from the read-write file.
 B after Tr=     0.000000    0.000000    0.000000
         Rot=    1.000000    0.000000    0.000000    0.000000 Ang=   0.00 deg.
 Initial guess orbital symmetries:
       Occupied  (A') (A') (A') (A') (A') (A') (A') (A') (A') (A')
                 (A') (A') (A') (A') (A') (A') (A') (A') (A') (A")
                 (A") (A")
       Virtual   (A") (A") (A") (A') (A') (A') (A') (A') (A') (A')
                 (A') (A') (A') (A') (A') (A') (A') (A') (A") (A")
                 (A') (A') (A") (A") (A') (A') (A') (A') (A") (A")
                 (A') (A') (A') (A') (A') (A') (A') (A') (A') (A')
                 (A') (A') (A') (A') (A') (A') (A') (A") (A") (A')
                 (A") (A") (A") (A") (A") (A') (A') (A') (A') (A")
                 (A') (A') (A') (A') (A") (A') (A') (A') (A") (A")
                 (A") (A') (A') (A') (A') (A') (A') (A') (A') (A')
                 (A') (A') (A') (A')
 Harris functional with IExCor=  402 diagonalized for initial guess.
 ExpMin= 1.61D-01 ExpMax= 3.05D+03 ExpMxC= 4.57D+02 IAcc=1 IRadAn=         1 AccDes= 0.00D+00
 HarFok:  IExCor=  402 AccDes= 0.00D+00 IRadAn=         1 IDoV= 1
 ScaDFX=  1.000000  1.000000  1.000000  1.000000
 FoFCou: FMM=F IPFlag=           0 FMFlag=      100000 FMFlg1=           0
         NFxFlg=           0 DoJE=T BraDBF=F KetDBF=T FulRan=T
         Omega=  0.000000  0.000000  1.000000  0.000000  0.000000 ICntrl=     500 IOpCl=  0
         NMat0=    1 NMatS0=    1 NMatT0=    0 NMatD0=    1 NMtDS0=    0 NMtDT0=    0
         I1Cent=           4 NGrid=           0.
 Petite list used in FoFCou.
 Requested convergence on RMS density matrix=1.00D-08 within 128 cycles.
 Requested convergence on MAX density matrix=1.00D-06.
 Requested convergence on             energy=1.00D-06.
 No special actions if energy rises.
 Keep R1 ints in memory in canonical form, NReq=17180056.
 Integral accuracy reduced to 1.0D-05 until final iterations.
 Initial convergence to 1.0D-05 achieved.  Increase integral accuracy.
 SCF Done:  E(RB3LYP) =  -233.397773146     A.U. after   11 cycles
             Convg  =    0.6634D-08             -V/T =  2.0102
 Calling FoFJK, ICntrl=      2127 FMM=F ISym2X=1 I1Cent= 0 IOpClX= 0 NMat=1 NMatS=1 NMatT=0.
 ***** Axes restored to original set *****
 -------------------------------------------------------------------
 Center     Atomic                   Forces (Hartrees/Bohr)
 Number     Number              X              Y              Z
 -------------------------------------------------------------------
      1        6          -0.002415509    0.004950382    0.000000000
      2        1          -0.001163598   -0.001855740    0.000000000
      3        1          -0.000154868   -0.002265695    0.000000000
      4        6           0.011318244   -0.007599034    0.000000000
      5        1          -0.001324074    0.001722305    0.000000000
      6        6          -0.015307438    0.008013321    0.000000000
      7        1           0.001785453   -0.001688306    0.000000000
      8        6           0.015344522   -0.008011631    0.000000000
      9        1          -0.001889241    0.001646392    0.000000000
     10        6          -0.010968699    0.007557213    0.000000000
     11        1           0.001207906   -0.001721048    0.000000000
     12        6           0.002192624   -0.004836012    0.000000000
     13        1           0.001175406    0.001801839    0.000000000
     14        1           0.000199271    0.002286016    0.000000000
 -------------------------------------------------------------------
 Cartesian Forces:  Max     0.015344522 RMS     0.005026801

 GradGradGradGradGradGradGradGradGradGradGradGradGradGradGradGradGradGrad
 Berny optimization.
 Using GEDIIS/GDIIS optimizer.
 Internal  Forces:  Max     0.006172813 RMS     0.002419600
 Search for a local minimum.
 Step number   2 out of a maximum of   61
 All quantities printed in internal units (Hartrees-Bohrs-Radians)
 Mixed Optimization -- RFO/linear search
 Update second derivatives using D2CorX and points    1    2
 DE= -1.30D-02 DEPred=-1.15D-02 R= 1.12D+00
 SS=  1.41D+00  RLast= 2.72D-01 DXNew= 5.0454D-01 8.1568D-01
 Trust test= 1.12D+00 RLast= 2.72D-01 DXMaxT set to 5.05D-01
 ITU=  1  0
 Use linear search instead of GDIIS.
     Eigenvalues ---    0.00237   0.00237   0.01499   0.01501   0.01501
     Eigenvalues ---    0.01502   0.02681   0.02681   0.02681   0.02681
     Eigenvalues ---    0.02681   0.15368   0.16000   0.16000   0.16000
     Eigenvalues ---    0.16000   0.16000   0.16000   0.16539   0.19267
     Eigenvalues ---    0.22000   0.22000   0.22000   0.28518   0.28747
     Eigenvalues ---    0.36885   0.37230   0.37230   0.37230   0.37230
     Eigenvalues ---    0.37230   0.37230   0.37608   0.53895   0.53930
     Eigenvalues ---    0.55129
 RFO step:  Lambda=-7.84722380D-04 EMin= 2.36824102D-03
 Quartic linear search produced a step of  0.17656.
 Iteration  1 RMS(Cart)=  0.01764544 RMS(Int)=  0.00013006
 Iteration  2 RMS(Cart)=  0.00027847 RMS(Int)=  0.00000000
 Iteration  3 RMS(Cart)=  0.00000001 RMS(Int)=  0.00000000
 ClnCor:  largest displacement from symmetrization is 3.05D-09 for atom     3.
 Variable       Old X    -DE/DX   Delta X   Delta X   Delta X     New X
                                 (Linear)    (Quad)   (Total)
    R1        2.05128   0.00111   0.00517  -0.00141   0.00376   2.05504
    R2        2.05135   0.00013   0.00518  -0.00453   0.00065   2.05201
    R3        2.53683   0.00126  -0.00426   0.00659   0.00233   2.53916
    R4        2.05263   0.00214   0.00541   0.00160   0.00700   2.05963
    R5        2.76600  -0.00617  -0.02546   0.00008  -0.02538   2.74062
    R6        2.05245   0.00233   0.00538   0.00223   0.00760   2.06006
    R7        2.54997   0.00275  -0.00194   0.00773   0.00579   2.55576
    R8        2.05239   0.00234   0.00536   0.00227   0.00763   2.06002
    R9        2.76587  -0.00612  -0.02548   0.00032  -0.02516   2.74071
   R10        2.05287   0.00208   0.00545   0.00138   0.00683   2.05970
   R11        2.53682   0.00126  -0.00426   0.00659   0.00232   2.53914
   R12        2.05143   0.00107   0.00519  -0.00157   0.00363   2.05505
   R13        2.05125   0.00016   0.00516  -0.00441   0.00075   2.05200
    A1        2.06087  -0.00284  -0.00557  -0.01433  -0.01990   2.04098
    A2        2.10921   0.00103   0.00192   0.00528   0.00719   2.11640
    A3        2.11310   0.00182   0.00365   0.00905   0.01270   2.12581
    A4        2.10251  -0.00303   0.00073  -0.01820  -0.01747   2.08504
    A5        2.14253   0.00531   0.00885   0.01888   0.02773   2.17026
    A6        2.03815  -0.00228  -0.00958  -0.00068  -0.01026   2.02788
    A7        2.03960  -0.00171  -0.00933   0.00294  -0.00639   2.03321
    A8        2.14406   0.00504   0.00807   0.01828   0.02635   2.17040
    A9        2.09953  -0.00333   0.00126  -0.02121  -0.01996   2.07958
   A10        2.10192  -0.00363   0.00063  -0.02237  -0.02174   2.08018
   A11        2.14142   0.00541   0.00865   0.01962   0.02828   2.16969
   A12        2.03985  -0.00177  -0.00928   0.00275  -0.00653   2.03331
   A13        2.03781  -0.00222  -0.00964  -0.00046  -0.01010   2.02771
   A14        2.14468   0.00500   0.00818   0.01793   0.02611   2.17079
   A15        2.10069  -0.00278   0.00146  -0.01746  -0.01600   2.08469
   A16        2.10977   0.00098   0.00202   0.00485   0.00687   2.11664
   A17        2.11254   0.00186   0.00355   0.00948   0.01303   2.12558
   A18        2.06087  -0.00284  -0.00557  -0.01433  -0.01990   2.04097
    D1        3.14159   0.00000   0.00000   0.00000   0.00000   3.14159
    D2        0.00000   0.00000   0.00000   0.00000   0.00000   0.00000
    D3        0.00000   0.00000   0.00000   0.00000   0.00000   0.00000
    D4        3.14159   0.00000   0.00000   0.00000   0.00000   3.14159
    D5        0.00000   0.00000   0.00000   0.00000   0.00000   0.00000
    D6        3.14159   0.00000   0.00000   0.00000   0.00000   3.14159
    D7        3.14159   0.00000   0.00000   0.00000   0.00000   3.14159
    D8        0.00000   0.00000   0.00000   0.00000   0.00000   0.00000
    D9        0.00000   0.00000   0.00000   0.00000   0.00000   0.00000
   D10        3.14159   0.00000   0.00000   0.00000   0.00000   3.14159
   D11        3.14159   0.00000   0.00000   0.00000   0.00000   3.14159
   D12        0.00000   0.00000   0.00000   0.00000   0.00000   0.00000
   D13        0.00000   0.00000   0.00000   0.00000   0.00000   0.00000
   D14        3.14159   0.00000   0.00000   0.00000   0.00000   3.14159
   D15        3.14159   0.00000   0.00000   0.00000   0.00000   3.14159
   D16        0.00000   0.00000   0.00000   0.00000   0.00000   0.00000
   D17        0.00000   0.00000   0.00000   0.00000   0.00000   0.00000
   D18        3.14159   0.00000   0.00000   0.00000   0.00000   3.14159
   D19        3.14159   0.00000   0.00000   0.00000   0.00000   3.14159
   D20        0.00000   0.00000   0.00000   0.00000   0.00000   0.00000
         Item               Value     Threshold  Converged?
 Maximum Force            0.006173     0.000450     NO 
 RMS     Force            0.002420     0.000300     NO 
 Maximum Displacement     0.063489     0.001800     NO 
 RMS     Displacement     0.017449     0.001200     NO 
 Predicted change in Energy=-7.865161D-04
 GradGradGradGradGradGradGradGradGradGradGradGradGradGradGradGradGradGrad

                          Input orientation:                          
 ---------------------------------------------------------------------
 Center     Atomic      Atomic             Coordinates (Angstroms)
 Number     Number       Type             X           Y           Z
 ---------------------------------------------------------------------
      1          6           0       -3.837043   -1.190194    0.000000
      2          1           0       -3.357501   -2.166235    0.000000
      3          1           0       -4.922819   -1.175528    0.000000
      4          6           0       -3.113638   -0.057888    0.000000
      5          1           0       -3.624688    0.904782    0.000000
      6          6           0       -1.664056   -0.013012    0.000000
      7          1           0       -1.147784   -0.973146    0.000000
      8          6           0       -0.935758    1.126596    0.000000
      9          1           0       -1.451441    2.087023    0.000000
     10          6           0        0.513901    1.170442    0.000000
     11          1           0        1.024114    0.207289    0.000000
     12          6           0        1.238703    2.301844    0.000000
     13          1           0        0.760602    3.278598    0.000000
     14          1           0        2.324455    2.285585    0.000000
 ---------------------------------------------------------------------
                    Distance matrix (angstroms):
                    1          2          3          4          5
     1  C    0.000000
     2  H    1.087482   0.000000
     3  H    1.085875   1.852490   0.000000
     4  C    1.343664   2.122404   2.126560   0.000000
     5  H    2.105712   3.082619   2.452108   1.089911   0.000000
     6  C    2.471362   2.739366   3.459910   1.450276   2.164815
     7  H    2.698003   2.511237   3.780455   2.168473   3.108323
     8  C    3.712812   4.087490   4.603958   2.479145   2.698064
     9  H    4.053548   4.660823   4.763896   2.713584   2.474004
    10  C    4.950082   5.110887   5.921275   3.829860   4.147107
    11  H    5.058044   4.983189   6.105587   4.146240   4.700836
    12  C    6.160968   6.410056   7.075059   4.950878   5.060074
    13  H    6.411587   6.826784   7.220839   5.112912   4.986559
    14  H    7.074256   7.218263   8.031331   5.921546   6.107284
                    6          7          8          9         10
     6  C    0.000000
     7  H    1.090135   0.000000
     8  C    1.352452   2.110420   0.000000
     9  H    2.110771   3.075198   1.090114   0.000000
    10  C    2.478721   2.712225   1.450321   2.168568   0.000000
    11  H    2.697182   2.471957   2.164768   3.108339   1.089945
    12  C    3.712757   4.052269   2.471737   2.698707   1.343655
    13  H    4.088235   4.660394   2.740210   2.512565   2.122542
    14  H    4.603452   4.761909   3.460093   3.781113   2.126418
                   11         12         13         14
    11  H    0.000000
    12  C    2.105518   0.000000
    13  H    3.082592   1.087487   0.000000
    14  H    2.451571   1.085874   1.852488   0.000000
 Stoichiometry    C6H8
 Framework group  CS[SG(C6H8)]
 Deg. of freedom    25
 Full point group                 CS      NOp   2
 Largest Abelian subgroup         CS      NOp   2
 Largest concise Abelian subgroup C1      NOp   1
                         Standard orientation:                         
 ---------------------------------------------------------------------
 Center     Atomic      Atomic             Coordinates (Angstroms)
 Number     Number       Type             X           Y           Z
 ---------------------------------------------------------------------
      1          6           0       -1.195339    2.838988    0.000000
      2          1           0       -0.265207    3.402434    0.000000
      3          1           0       -2.117672    3.412073    0.000000
      4          6           0       -1.196621    1.495325    0.000000
      5          1           0       -2.146080    0.960129    0.000000
      6          6           0        0.000000    0.675937    0.000000
      7          1           0        0.952488    1.206181    0.000000
      8          6           0       -0.001099   -0.676515    0.000000
      9          1           0       -0.953249   -1.207324    0.000000
     10          6           0        1.196143   -1.495077    0.000000
     11          1           0        2.145156   -0.959024    0.000000
     12          6           0        1.196524   -2.838733    0.000000
     13          1           0        0.267221   -3.403556    0.000000
     14          1           0        2.119696   -3.410463    0.000000
 ---------------------------------------------------------------------
 Rotational constants (GHZ):     26.6196086      1.3312381      1.2678341
 Standard basis: 6-31G(d) (6D, 7F)
 There are    82 symmetry adapted basis functions of A'  symmetry.
 There are    24 symmetry adapted basis functions of A"  symmetry.
 Integral buffers will be    131072 words long.
 Raffenetti 2 integral format.
 Two-electron integral symmetry is turned on.
   106 basis functions,   200 primitive gaussians,   106 cartesian basis functions
    22 alpha electrons       22 beta electrons
       nuclear repulsion energy       193.6413358745 Hartrees.
 NAtoms=   14 NActive=   14 NUniq=   14 SFac= 1.00D+00 NAtFMM=   60 NAOKFM=F Big=F
 One-electron integrals computed using PRISM.
 NBasis=   106 RedAO= T  NBF=    82    24
 NBsUse=   106 1.00D-06 NBFU=    82    24
 Initial guess read from the read-write file.
 B after Tr=     0.000000    0.000000    0.000000
         Rot=    1.000000    0.000000    0.000000    0.000000 Ang=   0.00 deg.
 Initial guess orbital symmetries:
       Occupied  (A') (A') (A') (A') (A') (A') (A') (A') (A') (A')
                 (A') (A') (A') (A') (A') (A') (A') (A') (A') (A")
                 (A") (A")
       Virtual   (A") (A") (A") (A') (A') (A') (A') (A') (A') (A')
                 (A') (A') (A') (A') (A') (A') (A') (A') (A") (A")
                 (A') (A') (A") (A") (A') (A') (A') (A') (A") (A")
                 (A') (A') (A') (A') (A') (A') (A') (A') (A') (A')
                 (A') (A') (A') (A') (A') (A') (A') (A") (A") (A")
                 (A') (A") (A") (A") (A") (A') (A') (A') (A') (A')
                 (A") (A') (A') (A') (A") (A') (A') (A') (A") (A')
                 (A") (A") (A') (A') (A') (A') (A') (A') (A') (A')
                 (A') (A') (A') (A')
 Harris functional with IExCor=  402 diagonalized for initial guess.
 ExpMin= 1.61D-01 ExpMax= 3.05D+03 ExpMxC= 4.57D+02 IAcc=1 IRadAn=         1 AccDes= 0.00D+00
 HarFok:  IExCor=  402 AccDes= 0.00D+00 IRadAn=         1 IDoV= 1
 ScaDFX=  1.000000  1.000000  1.000000  1.000000
 FoFCou: FMM=F IPFlag=           0 FMFlag=      100000 FMFlg1=           0
         NFxFlg=           0 DoJE=T BraDBF=F KetDBF=T FulRan=T
         Omega=  0.000000  0.000000  1.000000  0.000000  0.000000 ICntrl=     500 IOpCl=  0
         NMat0=    1 NMatS0=    1 NMatT0=    0 NMatD0=    1 NMtDS0=    0 NMtDT0=    0
         I1Cent=           4 NGrid=           0.
 Petite list used in FoFCou.
 Requested convergence on RMS density matrix=1.00D-08 within 128 cycles.
 Requested convergence on MAX density matrix=1.00D-06.
 Requested convergence on             energy=1.00D-06.
 No special actions if energy rises.
 Keep R1 ints in memory in canonical form, NReq=17180070.
 Integral accuracy reduced to 1.0D-05 until final iterations.
 Initial convergence to 1.0D-05 achieved.  Increase integral accuracy.
 SCF Done:  E(RB3LYP) =  -233.398532368     A.U. after   10 cycles
             Convg  =    0.7599D-08             -V/T =  2.0102
 Calling FoFJK, ICntrl=      2127 FMM=F ISym2X=1 I1Cent= 0 IOpClX= 0 NMat=1 NMatS=1 NMatT=0.
 ***** Axes restored to original set *****
 -------------------------------------------------------------------
 Center     Atomic                   Forces (Hartrees/Bohr)
 Number     Number              X              Y              Z
 -------------------------------------------------------------------
      1        6           0.000383251    0.001169455    0.000000000
      2        1          -0.000386146   -0.000380935    0.000000000
      3        1           0.000248515   -0.000195867    0.000000000
      4        6           0.000299247   -0.000456366    0.000000000
      5        1          -0.000603026    0.000116593    0.000000000
      6        6          -0.000612846    0.000534392    0.000000000
      7        1           0.000642122   -0.000296261    0.000000000
      8        6           0.000664256   -0.000536425    0.000000000
      9        1          -0.000668988    0.000291211    0.000000000
     10        6          -0.000278488    0.000436229    0.000000000
     11        1           0.000582735   -0.000109203    0.000000000
     12        6          -0.000402123   -0.001151727    0.000000000
     13        1           0.000378146    0.000372328    0.000000000
     14        1          -0.000246655    0.000206577    0.000000000
 -------------------------------------------------------------------
 Cartesian Forces:  Max     0.001169455 RMS     0.000422553

 GradGradGradGradGradGradGradGradGradGradGradGradGradGradGradGradGradGrad
 Berny optimization.
 Using GEDIIS/GDIIS optimizer.
 Internal  Forces:  Max     0.000635954 RMS     0.000317569
 Search for a local minimum.
 Step number   3 out of a maximum of   61
 All quantities printed in internal units (Hartrees-Bohrs-Radians)
 Mixed Optimization -- En-DIIS/RFO-DIIS
 Update second derivatives using D2CorX and points    1    2    3
 DE= -7.59D-04 DEPred=-7.87D-04 R= 9.65D-01
 SS=  1.41D+00  RLast= 8.63D-02 DXNew= 8.4853D-01 2.5895D-01
 Trust test= 9.65D-01 RLast= 8.63D-02 DXMaxT set to 5.05D-01
 ITU=  1  1  0
 Use linear search instead of GDIIS.
     Eigenvalues ---    0.00237   0.00237   0.01489   0.01489   0.01496
     Eigenvalues ---    0.01496   0.02681   0.02681   0.02681   0.02681
     Eigenvalues ---    0.02681   0.14280   0.16000   0.16000   0.16000
     Eigenvalues ---    0.16000   0.16000   0.16070   0.16396   0.21012
     Eigenvalues ---    0.22000   0.22000   0.22117   0.28519   0.30032
     Eigenvalues ---    0.36588   0.37230   0.37230   0.37230   0.37230
     Eigenvalues ---    0.37230   0.37233   0.37819   0.53877   0.53930
     Eigenvalues ---    0.55209
 RFO step:  Lambda=-2.27665904D-05 EMin= 2.36824102D-03
 Quartic linear search produced a step of  0.04918.
 Iteration  1 RMS(Cart)=  0.00296993 RMS(Int)=  0.00000609
 Iteration  2 RMS(Cart)=  0.00000611 RMS(Int)=  0.00000000
 Iteration  3 RMS(Cart)=  0.00000000 RMS(Int)=  0.00000000
 ClnCor:  largest displacement from symmetrization is 5.01D-10 for atom    14.
 Variable       Old X    -DE/DX   Delta X   Delta X   Delta X     New X
                                 (Linear)    (Quad)   (Total)
    R1        2.05504   0.00017   0.00018   0.00047   0.00065   2.05569
    R2        2.05201  -0.00025   0.00003  -0.00063  -0.00060   2.05141
    R3        2.53916  -0.00063   0.00011  -0.00138  -0.00126   2.53789
    R4        2.05963   0.00038   0.00034   0.00096   0.00130   2.06094
    R5        2.74062   0.00005  -0.00125   0.00052  -0.00073   2.73990
    R6        2.06006   0.00057   0.00037   0.00145   0.00182   2.06188
    R7        2.55576  -0.00039   0.00028  -0.00098  -0.00070   2.55506
    R8        2.06002   0.00057   0.00038   0.00147   0.00184   2.06186
    R9        2.74071   0.00002  -0.00124   0.00043  -0.00081   2.73990
   R10        2.05970   0.00037   0.00034   0.00092   0.00125   2.06095
   R11        2.53914  -0.00063   0.00011  -0.00137  -0.00126   2.53788
   R12        2.05505   0.00017   0.00018   0.00046   0.00064   2.05569
   R13        2.05200  -0.00025   0.00004  -0.00063  -0.00059   2.05141
    A1        2.04098  -0.00049  -0.00098  -0.00261  -0.00359   2.03739
    A2        2.11640   0.00057   0.00035   0.00352   0.00387   2.12027
    A3        2.12581  -0.00008   0.00062  -0.00090  -0.00028   2.12553
    A4        2.08504  -0.00064  -0.00086  -0.00335  -0.00421   2.08083
    A5        2.17026   0.00029   0.00136   0.00062   0.00198   2.17224
    A6        2.02788   0.00035  -0.00050   0.00273   0.00222   2.03011
    A7        2.03321   0.00050  -0.00031   0.00320   0.00289   2.03609
    A8        2.17040  -0.00011   0.00130  -0.00123   0.00006   2.17046
    A9        2.07958  -0.00038  -0.00098  -0.00197  -0.00295   2.07663
   A10        2.08018  -0.00046  -0.00107  -0.00232  -0.00339   2.07679
   A11        2.16969  -0.00002   0.00139  -0.00083   0.00056   2.17025
   A12        2.03331   0.00047  -0.00032   0.00316   0.00284   2.03615
   A13        2.02771   0.00037  -0.00050   0.00280   0.00230   2.03001
   A14        2.17079   0.00021   0.00128   0.00032   0.00160   2.17239
   A15        2.08469  -0.00059  -0.00079  -0.00312  -0.00391   2.08078
   A16        2.11664   0.00055   0.00034   0.00338   0.00372   2.12036
   A17        2.12558  -0.00006   0.00064  -0.00077  -0.00013   2.12544
   A18        2.04097  -0.00048  -0.00098  -0.00261  -0.00359   2.03738
    D1        3.14159   0.00000   0.00000   0.00000   0.00000   3.14159
    D2        0.00000   0.00000   0.00000   0.00000   0.00000   0.00000
    D3        0.00000   0.00000   0.00000   0.00000   0.00000   0.00000
    D4        3.14159   0.00000   0.00000   0.00000   0.00000   3.14159
    D5        0.00000   0.00000   0.00000   0.00000   0.00000   0.00000
    D6        3.14159   0.00000   0.00000   0.00000   0.00000   3.14159
    D7        3.14159   0.00000   0.00000   0.00000   0.00000   3.14159
    D8        0.00000   0.00000   0.00000   0.00000   0.00000   0.00000
    D9        0.00000   0.00000   0.00000   0.00000   0.00000   0.00000
   D10        3.14159   0.00000   0.00000   0.00000   0.00000   3.14159
   D11        3.14159   0.00000   0.00000   0.00000   0.00000   3.14159
   D12        0.00000   0.00000   0.00000   0.00000   0.00000   0.00000
   D13        0.00000   0.00000   0.00000   0.00000   0.00000   0.00000
   D14        3.14159   0.00000   0.00000   0.00000   0.00000   3.14159
   D15        3.14159   0.00000   0.00000   0.00000   0.00000   3.14159
   D16        0.00000   0.00000   0.00000   0.00000   0.00000   0.00000
   D17        0.00000   0.00000   0.00000   0.00000   0.00000   0.00000
   D18        3.14159   0.00000   0.00000   0.00000   0.00000   3.14159
   D19        3.14159   0.00000   0.00000   0.00000   0.00000   3.14159
   D20        0.00000   0.00000   0.00000   0.00000   0.00000   0.00000
         Item               Value     Threshold  Converged?
 Maximum Force            0.000636     0.000450     NO 
 RMS     Force            0.000318     0.000300     NO 
 Maximum Displacement     0.010231     0.001800     NO 
 RMS     Displacement     0.002971     0.001200     NO 
 Predicted change in Energy=-1.301764D-05
 GradGradGradGradGradGradGradGradGradGradGradGradGradGradGradGradGradGrad

                          Input orientation:                          
 ---------------------------------------------------------------------
 Center     Atomic      Atomic             Coordinates (Angstroms)
 Number     Number       Type             X           Y           Z
 ---------------------------------------------------------------------
      1          6           0       -3.837351   -1.189653    0.000000
      2          1           0       -3.362915   -2.168570    0.000000
      3          1           0       -4.922782   -1.173050    0.000000
      4          6           0       -3.112598   -0.059002    0.000000
      5          1           0       -3.626571    0.902893    0.000000
      6          6           0       -1.663423   -0.013450    0.000000
      7          1           0       -1.143467   -0.972690    0.000000
      8          6           0       -0.935794    1.126148    0.000000
      9          1           0       -1.455593    2.085463    0.000000
     10          6           0        0.513392    1.171386    0.000000
     11          1           0        1.027068    0.209323    0.000000
     12          6           0        1.238550    2.301770    0.000000
     13          1           0        0.764556    3.280900    0.000000
     14          1           0        2.323976    2.284686    0.000000
 ---------------------------------------------------------------------
                    Distance matrix (angstroms):
                    1          2          3          4          5
     1  C    0.000000
     2  H    1.087827   0.000000
     3  H    1.085558   1.850472   0.000000
     4  C    1.342996   2.124367   2.125528   0.000000
     5  H    2.103136   3.082758   2.447388   1.090601   0.000000
     6  C    2.471724   2.744598   3.459494   1.449892   2.166480
     7  H    2.702607   2.521126   3.784622   2.170784   3.111851
     8  C    3.712407   4.092197   4.602432   2.478519   2.700022
     9  H    4.049588   4.662046   4.758078   2.710055   2.472168
    10  C    4.950098   5.116743   5.920166   3.829055   4.148660
    11  H    5.061591   4.992627   6.108328   4.148353   4.705039
    12  C    6.160747   6.415405   7.073640   4.950327   5.062238
    13  H    6.415870   6.836134   7.223814   5.117350   4.993687
    14  H    7.073399   7.223033   8.029411   5.920237   6.108875
                    6          7          8          9         10
     6  C    0.000000
     7  H    1.091098   0.000000
     8  C    1.352082   2.109087   0.000000
     9  H    2.109177   3.074040   1.091089   0.000000
    10  C    2.478378   2.709657   1.449892   2.170815   0.000000
    11  H    2.699697   2.471513   2.166425   3.111833   1.090609
    12  C    3.712369   4.049209   2.471813   2.702812   1.342990
    13  H    4.092410   4.661928   2.744840   2.521533   2.124413
    14  H    4.602257   4.757484   3.459525   3.784815   2.125477
                   11         12         13         14
    11  H    0.000000
    12  C    2.103107   0.000000
    13  H    3.082774   1.087826   0.000000
    14  H    2.447264   1.085560   1.850468   0.000000
 Stoichiometry    C6H8
 Framework group  CS[SG(C6H8)]
 Deg. of freedom    25
 Full point group                 CS      NOp   2
 Largest Abelian subgroup         CS      NOp   2
 Largest concise Abelian subgroup C1      NOp   1
                         Standard orientation:                         
 ---------------------------------------------------------------------
 Center     Atomic      Atomic             Coordinates (Angstroms)
 Number     Number       Type             X           Y           Z
 ---------------------------------------------------------------------
      1          6           0       -1.198801    2.837497    0.000000
      2          1           0       -0.271982    3.407036    0.000000
      3          1           0       -2.122454    3.407850    0.000000
      4          6           0       -1.196726    1.494503    0.000000
      5          1           0       -2.147699    0.960593    0.000000
      6          6           0        0.000000    0.675948    0.000000
      7          1           0        0.954586    1.204400    0.000000
      8          6           0       -0.000318   -0.676134    0.000000
      9          1           0       -0.954812   -1.204733    0.000000
     10          6           0        1.196586   -1.494429    0.000000
     11          1           0        2.147400   -0.960218    0.000000
     12          6           0        1.199146   -2.837417    0.000000
     13          1           0        0.272585   -3.407374    0.000000
     14          1           0        2.123054   -3.407361    0.000000
 ---------------------------------------------------------------------
 Rotational constants (GHZ):     26.6490010      1.3311442      1.2678156
 Standard basis: 6-31G(d) (6D, 7F)
 There are    82 symmetry adapted basis functions of A'  symmetry.
 There are    24 symmetry adapted basis functions of A"  symmetry.
 Integral buffers will be    131072 words long.
 Raffenetti 2 integral format.
 Two-electron integral symmetry is turned on.
   106 basis functions,   200 primitive gaussians,   106 cartesian basis functions
    22 alpha electrons       22 beta electrons
       nuclear repulsion energy       193.6499987512 Hartrees.
 NAtoms=   14 NActive=   14 NUniq=   14 SFac= 1.00D+00 NAtFMM=   60 NAOKFM=F Big=F
 One-electron integrals computed using PRISM.
 NBasis=   106 RedAO= T  NBF=    82    24
 NBsUse=   106 1.00D-06 NBFU=    82    24
 Initial guess read from the read-write file.
 B after Tr=     0.000000    0.000000    0.000000
         Rot=    1.000000    0.000000    0.000000    0.000000 Ang=   0.00 deg.
 Initial guess orbital symmetries:
       Occupied  (A') (A') (A') (A') (A') (A') (A') (A') (A') (A')
                 (A') (A') (A') (A') (A') (A') (A') (A') (A') (A")
                 (A") (A")
       Virtual   (A") (A") (A') (A") (A') (A') (A') (A') (A') (A')
                 (A') (A') (A') (A') (A') (A') (A') (A') (A") (A")
                 (A') (A') (A") (A") (A') (A') (A') (A') (A") (A")
                 (A') (A') (A') (A') (A') (A') (A') (A') (A') (A')
                 (A') (A') (A') (A') (A') (A') (A") (A') (A") (A")
                 (A') (A") (A") (A") (A") (A') (A') (A') (A') (A')
                 (A") (A') (A') (A') (A") (A') (A') (A') (A") (A')
                 (A") (A") (A') (A') (A') (A') (A') (A') (A') (A')
                 (A') (A') (A') (A')
 Requested convergence on RMS density matrix=1.00D-08 within 128 cycles.
 Requested convergence on MAX density matrix=1.00D-06.
 Requested convergence on             energy=1.00D-06.
 No special actions if energy rises.
 Keep R1 ints in memory in canonical form, NReq=17180070.
 SCF Done:  E(RB3LYP) =  -233.398546815     A.U. after    8 cycles
             Convg  =    0.9426D-08             -V/T =  2.0102
 Calling FoFJK, ICntrl=      2127 FMM=F ISym2X=1 I1Cent= 0 IOpClX= 0 NMat=1 NMatS=1 NMatT=0.
 ***** Axes restored to original set *****
 -------------------------------------------------------------------
 Center     Atomic                   Forces (Hartrees/Bohr)
 Number     Number              X              Y              Z
 -------------------------------------------------------------------
      1        6           0.000112422   -0.000022145    0.000000000
      2        1          -0.000136870   -0.000031316    0.000000000
      3        1          -0.000023733   -0.000031646    0.000000000
      4        6          -0.000032086    0.000217825    0.000000000
      5        1          -0.000035811   -0.000076194    0.000000000
      6        6           0.000100939   -0.000300858    0.000000000
      7        1          -0.000011041    0.000060414    0.000000000
      8        6          -0.000096936    0.000297222    0.000000000
      9        1           0.000003765   -0.000059713    0.000000000
     10        6           0.000035362   -0.000224098    0.000000000
     11        1           0.000035882    0.000080562    0.000000000
     12        6          -0.000107404    0.000025240    0.000000000
     13        1           0.000132358    0.000029051    0.000000000
     14        1           0.000023153    0.000035655    0.000000000
 -------------------------------------------------------------------
 Cartesian Forces:  Max     0.000300858 RMS     0.000096035

 GradGradGradGradGradGradGradGradGradGradGradGradGradGradGradGradGradGrad
 Berny optimization.
 Using GEDIIS/GDIIS optimizer.
 Internal  Forces:  Max     0.000173283 RMS     0.000067184
 Search for a local minimum.
 Step number   4 out of a maximum of   61
 All quantities printed in internal units (Hartrees-Bohrs-Radians)
 Mixed Optimization -- En-DIIS/RFO-DIIS
 Swaping is turned off.
 Update second derivatives using D2CorX and points    1    2    3    4
 DE= -1.44D-05 DEPred=-1.30D-05 R= 1.11D+00
 SS=  1.41D+00  RLast= 1.26D-02 DXNew= 8.4853D-01 3.7662D-02
 Trust test= 1.11D+00 RLast= 1.26D-02 DXMaxT set to 5.05D-01
 ITU=  1  1  1  0
     Eigenvalues ---    0.00237   0.00237   0.01485   0.01485   0.01492
     Eigenvalues ---    0.01492   0.02681   0.02681   0.02681   0.02681
     Eigenvalues ---    0.02681   0.11998   0.16000   0.16000   0.16000
     Eigenvalues ---    0.16000   0.16002   0.16039   0.16638   0.21036
     Eigenvalues ---    0.21961   0.22000   0.22002   0.28519   0.29441
     Eigenvalues ---    0.37217   0.37228   0.37230   0.37230   0.37230
     Eigenvalues ---    0.37230   0.37562   0.37999   0.53825   0.53930
     Eigenvalues ---    0.57790
 En-DIIS/RFO-DIIS IScMMF=        0 using points:     4    3
 RFO step:  Lambda=-4.96976736D-07.
 DidBck=F Rises=F RFO-DIIS coefs:    1.10855   -0.10855
 Iteration  1 RMS(Cart)=  0.00093356 RMS(Int)=  0.00000050
 Iteration  2 RMS(Cart)=  0.00000050 RMS(Int)=  0.00000000
 ClnCor:  largest displacement from symmetrization is 2.58D-11 for atom    12.
 Variable       Old X    -DE/DX   Delta X   Delta X   Delta X     New X
                                  (DIIS)     (GDIIS)  (Total)
    R1        2.05569  -0.00003   0.00007  -0.00011  -0.00004   2.05565
    R2        2.05141   0.00002  -0.00006   0.00013   0.00007   2.05148
    R3        2.53789   0.00010  -0.00014   0.00029   0.00015   2.53804
    R4        2.06094  -0.00005   0.00014  -0.00023  -0.00009   2.06085
    R5        2.73990   0.00011  -0.00008   0.00036   0.00028   2.74018
    R6        2.06188  -0.00006   0.00020  -0.00029  -0.00009   2.06179
    R7        2.55506   0.00017  -0.00008   0.00040   0.00033   2.55539
    R8        2.06186  -0.00005   0.00020  -0.00028  -0.00008   2.06178
    R9        2.73990   0.00011  -0.00009   0.00038   0.00029   2.74019
   R10        2.06095  -0.00006   0.00014  -0.00024  -0.00010   2.06085
   R11        2.53788   0.00010  -0.00014   0.00029   0.00016   2.53804
   R12        2.05569  -0.00003   0.00007  -0.00011  -0.00004   2.05565
   R13        2.05141   0.00002  -0.00006   0.00013   0.00007   2.05148
    A1        2.03739  -0.00012  -0.00039  -0.00056  -0.00095   2.03644
    A2        2.12027   0.00016   0.00042   0.00083   0.00125   2.12152
    A3        2.12553  -0.00005  -0.00003  -0.00027  -0.00030   2.12522
    A4        2.08083  -0.00011  -0.00046  -0.00034  -0.00079   2.08004
    A5        2.17224   0.00007   0.00022   0.00025   0.00047   2.17271
    A6        2.03011   0.00003   0.00024   0.00009   0.00033   2.03044
    A7        2.03609   0.00007   0.00031   0.00013   0.00045   2.03654
    A8        2.17046  -0.00010   0.00001  -0.00048  -0.00048   2.16999
    A9        2.07663   0.00003  -0.00032   0.00035   0.00003   2.07666
   A10        2.07679   0.00001  -0.00037   0.00026  -0.00010   2.07668
   A11        2.17025  -0.00008   0.00006  -0.00037  -0.00031   2.16994
   A12        2.03615   0.00006   0.00031   0.00011   0.00042   2.03656
   A13        2.03001   0.00005   0.00025   0.00014   0.00039   2.03040
   A14        2.17239   0.00005   0.00017   0.00019   0.00036   2.17275
   A15        2.08078  -0.00010  -0.00042  -0.00033  -0.00075   2.08003
   A16        2.12036   0.00015   0.00040   0.00078   0.00118   2.12154
   A17        2.12544  -0.00004  -0.00001  -0.00022  -0.00024   2.12521
   A18        2.03738  -0.00012  -0.00039  -0.00055  -0.00094   2.03644
    D1        3.14159   0.00000   0.00000   0.00000   0.00000   3.14159
    D2        0.00000   0.00000   0.00000   0.00000   0.00000   0.00000
    D3        0.00000   0.00000   0.00000   0.00000   0.00000   0.00000
    D4        3.14159   0.00000   0.00000   0.00000   0.00000   3.14159
    D5        0.00000   0.00000   0.00000   0.00000   0.00000   0.00000
    D6        3.14159   0.00000   0.00000   0.00000   0.00000   3.14159
    D7        3.14159   0.00000   0.00000   0.00000   0.00000   3.14159
    D8        0.00000   0.00000   0.00000   0.00000   0.00000   0.00000
    D9        0.00000   0.00000   0.00000   0.00000   0.00000   0.00000
   D10        3.14159   0.00000   0.00000   0.00000   0.00000   3.14159
   D11        3.14159   0.00000   0.00000   0.00000   0.00000   3.14159
   D12        0.00000   0.00000   0.00000   0.00000   0.00000   0.00000
   D13        0.00000   0.00000   0.00000   0.00000   0.00000   0.00000
   D14        3.14159   0.00000   0.00000   0.00000   0.00000   3.14159
   D15        3.14159   0.00000   0.00000   0.00000   0.00000   3.14159
   D16        0.00000   0.00000   0.00000   0.00000   0.00000   0.00000
   D17        0.00000   0.00000   0.00000   0.00000   0.00000   0.00000
   D18        3.14159   0.00000   0.00000   0.00000   0.00000   3.14159
   D19        3.14159   0.00000   0.00000   0.00000   0.00000   3.14159
   D20        0.00000   0.00000   0.00000   0.00000   0.00000   0.00000
         Item               Value     Threshold  Converged?
 Maximum Force            0.000173     0.000450     YES
 RMS     Force            0.000067     0.000300     YES
 Maximum Displacement     0.003768     0.001800     NO 
 RMS     Displacement     0.000933     0.001200     YES
 Predicted change in Energy=-5.876275D-07
 GradGradGradGradGradGradGradGradGradGradGradGradGradGradGradGradGradGrad

                          Input orientation:                          
 ---------------------------------------------------------------------
 Center     Atomic      Atomic             Coordinates (Angstroms)
 Number     Number       Type             X           Y           Z
 ---------------------------------------------------------------------
      1          6           0       -3.837692   -1.189879    0.000000
      2          1           0       -3.364909   -2.169570    0.000000
      3          1           0       -4.923148   -1.172483    0.000000
      4          6           0       -3.112415   -0.059472    0.000000
      5          1           0       -3.626718    0.902194    0.000000
      6          6           0       -1.663091   -0.013857    0.000000
      7          1           0       -1.142691   -0.972803    0.000000
      8          6           0       -0.935958    1.126261    0.000000
      9          1           0       -1.456332    2.085217    0.000000
     10          6           0        0.513374    1.171800    0.000000
     11          1           0        1.027598    0.210090    0.000000
     12          6           0        1.238751    2.302142    0.000000
     13          1           0        0.766074    3.281882    0.000000
     14          1           0        2.324206    2.284632    0.000000
 ---------------------------------------------------------------------
                    Distance matrix (angstroms):
                    1          2          3          4          5
     1  C    0.000000
     2  H    1.087804   0.000000
     3  H    1.085595   1.849943   0.000000
     4  C    1.343074   2.125151   2.125452   0.000000
     5  H    2.102684   3.082900   2.446429   1.090555   0.000000
     6  C    2.472230   2.746503   3.459824   1.450041   2.166791
     7  H    2.703729   2.523985   3.785726   2.171171   3.112234
     8  C    3.712757   4.094178   4.602380   2.478492   2.700073
     9  H    4.049338   4.663248   4.757250   2.709668   2.471866
    10  C    4.950687   5.119163   5.920425   3.829148   4.148861
    11  H    5.062703   4.995687   6.109245   4.148779   4.705493
    12  C    6.161533   6.417935   7.074038   4.950744   5.062870
    13  H    6.418046   6.839835   7.225553   5.119308   4.995952
    14  H    7.073982   7.225367   8.029681   5.920444   6.109389
                    6          7          8          9         10
     6  C    0.000000
     7  H    1.091051   0.000000
     8  C    1.352254   2.109219   0.000000
     9  H    2.109233   3.074062   1.091049   0.000000
    10  C    2.478464   2.709589   1.450047   2.171191   0.000000
    11  H    2.699992   2.471718   2.166776   3.112235   1.090556
    12  C    3.712754   4.049263   2.472258   2.703799   1.343073
    13  H    4.094233   4.663231   2.746565   2.524102   2.125160
    14  H    4.602346   4.757127   3.459840   3.785793   2.125443
                   11         12         13         14
    11  H    0.000000
    12  C    2.102681   0.000000
    13  H    3.082905   1.087803   0.000000
    14  H    2.446409   1.085596   1.849941   0.000000
 Stoichiometry    C6H8
 Framework group  CS[SG(C6H8)]
 Deg. of freedom    25
 Full point group                 CS      NOp   2
 Largest Abelian subgroup         CS      NOp   2
 Largest concise Abelian subgroup C1      NOp   1
                         Standard orientation:                         
 ---------------------------------------------------------------------
 Center     Atomic      Atomic             Coordinates (Angstroms)
 Number     Number       Type             X           Y           Z
[...]
 -------------------------------------------------------------------
 Cartesian Forces:  Max     0.000083228 RMS     0.000027551

 GradGradGradGradGradGradGradGradGradGradGradGradGradGradGradGradGradGrad
 Berny optimization.
 Internal  Forces:  Max     0.000042658 RMS     0.000016171
 Search for a local minimum.
 Step number   1 out of a maximum of    2
 All quantities printed in internal units (Hartrees-Bohrs-Radians)
 Second derivative matrix not updated -- analytic derivatives used.
 ITU=  0
     Eigenvalues ---    0.00826   0.00865   0.02143   0.02314   0.02445
     Eigenvalues ---    0.02531   0.02873   0.02976   0.03263   0.03809
     Eigenvalues ---    0.03943   0.10753   0.10844   0.11152   0.11327
     Eigenvalues ---    0.11569   0.11986   0.12546   0.13685   0.14868
     Eigenvalues ---    0.16148   0.17935   0.19395   0.34657   0.34890
     Eigenvalues ---    0.35123   0.35219   0.35546   0.36067   0.36129
     Eigenvalues ---    0.36636   0.36685   0.36808   0.58635   0.61407
     Eigenvalues ---    0.61446
 Angle between quadratic step and forces=  25.07 degrees.
 Linear search not attempted -- first point.
 Iteration  1 RMS(Cart)=  0.00018044 RMS(Int)=  0.00000002
 Iteration  2 RMS(Cart)=  0.00000003 RMS(Int)=  0.00000000
 ClnCor:  largest displacement from symmetrization is 1.18D-11 for atom    14.
 Variable       Old X    -DE/DX   Delta X   Delta X   Delta X     New X
                                 (Linear)    (Quad)   (Total)
    R1        2.05565  -0.00001   0.00000  -0.00004  -0.00004   2.05561
    R2        2.05148   0.00001   0.00000   0.00005   0.00005   2.05153
    R3        2.53804  -0.00001   0.00000  -0.00001  -0.00001   2.53803
    R4        2.06085  -0.00003   0.00000  -0.00007  -0.00007   2.06078
    R5        2.74018  -0.00002   0.00000  -0.00004  -0.00004   2.74014
    R6        2.06179  -0.00004   0.00000  -0.00014  -0.00014   2.06165
    R7        2.55539   0.00000   0.00000   0.00003   0.00003   2.55542
    R8        2.06178  -0.00004   0.00000  -0.00014  -0.00014   2.06165
    R9        2.74019  -0.00003   0.00000  -0.00005  -0.00005   2.74014
   R10        2.06085  -0.00003   0.00000  -0.00008  -0.00008   2.06078
   R11        2.53804  -0.00001   0.00000  -0.00001  -0.00001   2.53803
   R12        2.05565  -0.00001   0.00000  -0.00004  -0.00004   2.05561
   R13        2.05148   0.00001   0.00000   0.00005   0.00005   2.05153
    A1        2.03644  -0.00001   0.00000  -0.00010  -0.00010   2.03634
    A2        2.12152   0.00002   0.00000   0.00022   0.00022   2.12174
    A3        2.12522  -0.00001   0.00000  -0.00011  -0.00011   2.12511
    A4        2.08004  -0.00001   0.00000  -0.00007  -0.00007   2.07997
    A5        2.17271   0.00001   0.00000   0.00008   0.00008   2.17279
    A6        2.03044   0.00000   0.00000  -0.00001  -0.00001   2.03042
    A7        2.03654   0.00001   0.00000   0.00009   0.00009   2.03663
    A8        2.16999  -0.00004   0.00000  -0.00025  -0.00025   2.16974
    A9        2.07666   0.00003   0.00000   0.00016   0.00016   2.07682
   A10        2.07668   0.00002   0.00000   0.00013   0.00013   2.07682
   A11        2.16994  -0.00003   0.00000  -0.00020  -0.00020   2.16974
   A12        2.03656   0.00001   0.00000   0.00006   0.00006   2.03663
   A13        2.03040   0.00000   0.00000   0.00002   0.00002   2.03042
   A14        2.17275   0.00000   0.00000   0.00004   0.00004   2.17279
   A15        2.08003   0.00000   0.00000  -0.00006  -0.00006   2.07997
   A16        2.12154   0.00002   0.00000   0.00020   0.00020   2.12174
   A17        2.12521  -0.00001   0.00000  -0.00010  -0.00010   2.12511
   A18        2.03644  -0.00001   0.00000  -0.00010  -0.00010   2.03634
    D1        3.14159   0.00000   0.00000   0.00000   0.00000   3.14159
    D2        0.00000   0.00000   0.00000   0.00000   0.00000   0.00000
    D3        0.00000   0.00000   0.00000   0.00000   0.00000   0.00000
    D4        3.14159   0.00000   0.00000   0.00000   0.00000   3.14159
    D5        0.00000   0.00000   0.00000   0.00000   0.00000   0.00000
    D6        3.14159   0.00000   0.00000   0.00000   0.00000   3.14159
    D7        3.14159   0.00000   0.00000   0.00000   0.00000   3.14159
    D8        0.00000   0.00000   0.00000   0.00000   0.00000   0.00000
    D9        0.00000   0.00000   0.00000   0.00000   0.00000   0.00000
   D10        3.14159   0.00000   0.00000   0.00000   0.00000   3.14159
   D11        3.14159   0.00000   0.00000   0.00000   0.00000   3.14159
   D12        0.00000   0.00000   0.00000   0.00000   0.00000   0.00000
   D13        0.00000   0.00000   0.00000   0.00000   0.00000   0.00000
   D14        3.14159   0.00000   0.00000   0.00000   0.00000   3.14159
   D15        3.14159   0.00000   0.00000   0.00000   0.00000   3.14159
   D16        0.00000   0.00000   0.00000   0.00000   0.00000   0.00000
   D17        0.00000   0.00000   0.00000   0.00000   0.00000   0.00000
   D18        3.14159   0.00000   0.00000   0.00000   0.00000   3.14159
   D19        3.14159   0.00000   0.00000   0.00000   0.00000   3.14159
   D20        0.00000   0.00000   0.00000   0.00000   0.00000   0.00000
         Item               Value     Threshold  Converged?
 Maximum Force            0.000043     0.000450     YES
 RMS     Force            0.000016     0.000300     YES
 Maximum Displacement     0.000557     0.001800     YES
 RMS     Displacement     0.000180     0.001200     YES
 Predicted change in Energy=-3.154441D-08
 Optimization completed.
    -- Stationary point found.
                           ----------------------------
                           !   Optimized Parameters   !
                           ! (Angstroms and Degrees)  !
 --------------------------                            --------------------------
 ! Name  Definition              Value          Derivative Info.                !
 --------------------------------------------------------------------------------
 ! R1    R(1,2)                  1.0878         -DE/DX =    0.0                 !
 ! R2    R(1,3)                  1.0856         -DE/DX =    0.0                 !
 ! R3    R(1,4)                  1.3431         -DE/DX =    0.0                 !
 ! R4    R(4,5)                  1.0906         -DE/DX =    0.0                 !
 ! R5    R(4,6)                  1.45           -DE/DX =    0.0                 !
 ! R6    R(6,7)                  1.0911         -DE/DX =    0.0                 !
 ! R7    R(6,8)                  1.3523         -DE/DX =    0.0                 !
 ! R8    R(8,9)                  1.091          -DE/DX =    0.0                 !
 ! R9    R(8,10)                 1.45           -DE/DX =    0.0                 !
 ! R10   R(10,11)                1.0906         -DE/DX =    0.0                 !
 ! R11   R(10,12)                1.3431         -DE/DX =    0.0                 !
 ! R12   R(12,13)                1.0878         -DE/DX =    0.0                 !
 ! R13   R(12,14)                1.0856         -DE/DX =    0.0                 !
 ! A1    A(2,1,3)              116.6794         -DE/DX =    0.0                 !
 ! A2    A(2,1,4)              121.5542         -DE/DX =    0.0                 !
 ! A3    A(3,1,4)              121.7664         -DE/DX =    0.0                 !
 ! A4    A(1,4,5)              119.1774         -DE/DX =    0.0                 !
 ! A5    A(1,4,6)              124.4872         -DE/DX =    0.0                 !
 ! A6    A(5,4,6)              116.3354         -DE/DX =    0.0                 !
 ! A7    A(4,6,7)              116.6851         -DE/DX =    0.0                 !
 ! A8    A(4,6,8)              124.3312         -DE/DX =    0.0                 !
 ! A9    A(7,6,8)              118.9837         -DE/DX =    0.0                 !
 ! A10   A(6,8,9)              118.9852         -DE/DX =    0.0                 !
 ! A11   A(6,8,10)             124.3282         -DE/DX =    0.0                 !
 ! A12   A(9,8,10)             116.6866         -DE/DX =    0.0                 !
 ! A13   A(8,10,11)            116.3336         -DE/DX =    0.0                 !
 ! A14   A(8,10,12)            124.4893         -DE/DX =    0.0                 !
 ! A15   A(11,10,12)           119.1771         -DE/DX =    0.0                 !
 ! A16   A(10,12,13)           121.5553         -DE/DX =    0.0                 !
 ! A17   A(10,12,14)           121.7654         -DE/DX =    0.0                 !
 ! A18   A(13,12,14)           116.6793         -DE/DX =    0.0                 !
 ! D1    D(2,1,4,5)            180.0            -DE/DX =    0.0                 !
 ! D2    D(2,1,4,6)              0.0            -DE/DX =    0.0                 !
 ! D3    D(3,1,4,5)              0.0            -DE/DX =    0.0                 !
 ! D4    D(3,1,4,6)            180.0            -DE/DX =    0.0                 !
 ! D5    D(1,4,6,7)              0.0            -DE/DX =    0.0                 !
 ! D6    D(1,4,6,8)            180.0            -DE/DX =    0.0                 !
 ! D7    D(5,4,6,7)            180.0            -DE/DX =    0.0                 !
 ! D8    D(5,4,6,8)              0.0            -DE/DX =    0.0                 !
 ! D9    D(4,6,8,9)              0.0            -DE/DX =    0.0                 !
 ! D10   D(4,6,8,10)           180.0            -DE/DX =    0.0                 !
 ! D11   D(7,6,8,9)            180.0            -DE/DX =    0.0                 !
 ! D12   D(7,6,8,10)             0.0            -DE/DX =    0.0                 !
 ! D13   D(6,8,10,11)            0.0            -DE/DX =    0.0                 !
 ! D14   D(6,8,10,12)          180.0            -DE/DX =    0.0                 !
 ! D15   D(9,8,10,11)          180.0            -DE/DX =    0.0                 !
 ! D16   D(9,8,10,12)            0.0            -DE/DX =    0.0                 !
 ! D17   D(8,10,12,13)           0.0            -DE/DX =    0.0                 !
 ! D18   D(8,10,12,14)         180.0            -DE/DX =    0.0                 !
 ! D19   D(11,10,12,13)        180.0            -DE/DX =    0.0                 !
 ! D20   D(11,10,12,14)          0.0            -DE/DX =    0.0                 !
 --------------------------------------------------------------------------------
 GradGradGradGradGradGradGradGradGradGradGradGradGradGradGradGradGradGrad

 1\1\GINC-NISER-THINKCENTRE-M93P\Freq\RB3LYP\6-31G(d)\C6H8\STUDENT\02-M
 ar-2021\0\\#N Geom=AllCheck Guess=TCheck SCRF=Check GenChk RB3LYP/6-31
 G(d) Freq\\Title Card Required\\0,1\C,-3.8376923589,-1.1898794656,0.\H
 ,-3.3649088948,-2.1695695126,0.\H,-4.9231476657,-1.1724833201,0.\C,-3.
 1124146368,-0.0594720309,0.\H,-3.6267184626,0.9021937782,0.\C,-1.66309
 10439,-0.0138574195,0.\H,-1.1426913405,-0.9728025793,0.\C,-0.935958417
 8,1.1262605292,0.\H,-1.4563320184,2.0852174558,0.\C,0.5133736245,1.171
 8001276,0.\H,1.0275975454,0.2100900433,0.\C,1.2387509529,2.302142051,0
 .\H,0.7660735473,3.281882236,0.\H,2.3242055595,2.2846320171,0.\\Versio
 n=EM64L-G09RevC.01\State=1-A'\HF=-233.3985476\RMSD=4.516e-09\RMSF=2.75
 5e-05\ZeroPoint=0.1191736\Thermal=0.1258962\Dipole=-0.0000328,-0.00001
 3,0.\DipoleDeriv=-0.1312689,-0.2131156,0.,-0.0974275,0.031298,0.,0.,0.
 ,-0.3126308,-0.0002759,0.0894308,0.,0.0443104,-0.0642453,0.,0.,0.,0.13
 8848,-0.1062555,-0.0195356,0.,0.0072373,0.03243,0.,0.,0.,0.1365035,0.2
 72036,0.1221513,0.,-0.1218181,0.0373765,0.,0.,0.,-0.0759004,-0.0238198
 ,0.0206602,0.,0.1003936,-0.0809588,0.,0.,0.,0.1086941,0.023819,-0.0511
 169,0.,-0.014413,0.1159979,0.,0.,0.,-0.1083731,-0.0342394,0.0515407,0.
 ,0.0817275,-0.0718897,0.,0.,0.,0.1128611,0.0238007,-0.0511465,0.,-0.01
 44507,0.1159878,0.,0.,0.,-0.1083754,-0.0342352,0.0515387,0.,0.0817251,
 -0.0718864,0.,0.,0.,0.1128661,0.2720522,0.1221696,0.,-0.121807,0.03737
 48,0.,0.,0.,-0.0759003,-0.0238085,0.0206505,0.,0.1003897,-0.0809726,0.
 ,0.,0.,0.1086905,-0.1312847,-0.2131229,0.,-0.0974229,0.0313219,0.,0.,0
 .,-0.3126362,-0.0002608,0.089421,0.,0.0443039,-0.0642592,0.,0.,0.,0.13
 88503,-0.1062593,-0.0195252,0.,0.0072518,0.032425,0.,0.,0.,0.1365026\P
 olar=117.5853268,48.920054,94.4482949,0.,0.,22.3725417\PG=CS [SG(C6H8)
 ]\NImag=0\\0.71326373,0.08841864,0.77546287,0.,0.,0.10184077,-0.116299
 08,0.11338248,0.,0.11273738,0.10976162,-0.28198635,0.,-0.11983676,0.30
 212169,0.,0.,-0.03351046,0.,0.,0.02208820,-0.34557675,0.00756650,0.,-0
 .00847314,-0.00156206,0.,0.36524716,0.01213564,-0.05910601,0.,0.026087
 82,0.00258796,0.,-0.00618914,0.05469043,0.,0.,-0.03155535,0.,0.,0.0022
 0929,0.,0.,0.02152112,-0.22702201,-0.17478784,0.,0.01188130,0.01429073
 ,0.,-0.01279560,-0.02964333,0.,0.65266095,-0.18864037,-0.41662723,0.,-
 0.01585971,-0.02218658,0.,0.00337317,0.00442527,0.,0.08109662,0.805870
 25,0.,0.,-0.04912344,0.,0.,0.00466547,0.,0.,0.00417667,0.,0.,0.1321762
 5,0.01132428,-0.01745510,0.,-0.00118994,-0.00331455,0.,0.00110623,0.00
 010711,0.,-0.11998802,0.11350067,0.,0.12590522,0.01446640,-0.02260516,
 0.,-0.00302047,-0.00272580,0.,-0.00027524,0.00129103,0.,0.11221978,-0.
 26551581,0.,-0.12105622,0.28581470,0.,0.,0.00520718,0.,0.,0.01122527,0
 .,0.,-0.00707376,0.,0.,-0.04162407,0.,0.,0.02722808,-0.03490818,-0.026
 02863,0.,0.00138606,0.00247116,0.,0.00091673,-0.00061193,0.,-0.2615365
 3,0.02202471,0.,-0.01372445,-0.00114238,0.,0.65736278,-0.04127035,-0.0
 0495292,0.,-0.00151910,0.00143410,0.,-0.00300071,-0.00454704,0.,0.0204
 1616,-0.09901751,0.,0.02926807,0.00137251,0.,0.06957396,0.78259455,0.,
 0.,0.00630226,0.,0.,-0.00759635,0.,0.,0.01204185,0.,0.,-0.06233423,0.,
 0.,0.00298429,0.,0.,0.13038542,0.00161506,0.00137278,0.,0.00002401,-0.
 00139457,0.,0.00034790,-0.00042052,0.,-0.01325172,0.02910319,0.,-0.005
 23533,-0.00063932,0.,-0.12045136,0.11273927,0.,0.12622036,-0.00081043,
 0.00123251,0.,0.00053875,0.00028966,0.,0.00009540,0.00020010,0.,-0.001
 43444,0.00155938,0.,-0.00080505,0.00063533,0.,0.11133419,-0.26383261,0
 .,-0.12142642,0.28414306,0.,0.,-0.00145690,0.,0.,0.00028722,0.,0.,-0.0
 0026539,0.,0.,0.00287316,0.,0.,0.00346518,0.,0.,-0.03978997,0.,0.,0.02
 572366,0.00046910,0.01033147,0.,0.00009694,-0.00052522,0.,-0.00071247,
 -0.00132587,0.,-0.03977299,-0.04337477,0.,0.00163077,-0.00108285,0.,-0
 .20185195,-0.15648362,0.,0.01109961,0.01483905,0.,0.65734260,0.0084213
 7,0.00749121,0.,-0.00005928,0.00021433,0.,0.00033394,0.00088543,0.,-0.
 02491226,-0.00479739,0.,0.00195193,0.00093462,0.,-0.15648215,-0.394440
 72,0.,-0.01545866,-0.02334001,0.,0.06956175,0.78260600,0.,0.,0.0023262
 2,0.,0.,-0.00001963,0.,0.,0.00015852,0.,0.,0.00474036,0.,0.,-0.0015011
 1,0.,0.,-0.05274844,0.,0.,0.00505102,0.,0.,0.13038468,0.00009358,-0.00
 000549,0.,-0.00013913,0.00013281,0.,0.00000113,0.00009450,0.,0.0011553
 8,-0.00175051,0.,-0.00001550,0.00055487,0.,0.01110021,-0.01545924,0.,-
 0.00146362,-0.00290109,0.,-0.12044726,0.11273778,0.,0.12621262,-0.0004
 8797,0.00031534,0.,0.00015035,0.00024755,0.,-0.00007525,-0.00000487,0.
 ,0.00242026,0.00105831,0.,-0.00143766,0.00050199,0.,0.01483888,-0.0233
 3849,0.,-0.00290094,-0.00300599,0.,0.11133257,-0.26384341,0.,-0.121425
 56,0.28415293,0.,0.,0.00011127,0.,0.,0.00033568,0.,0.,0.00017358,0.,0.
 ,-0.00646845,0.,0.,0.00022908,0.,0.,0.00505086,0.,0.,0.00973114,0.,0.,
 -0.03978909,0.,0.,0.02572298,-0.00265191,-0.00437978,0.,-0.00004893,0.
 00005734,0.,0.00010108,-0.00005319,0.,0.01128146,0.00478651,0.,-0.0000
 1241,-0.00007592,0.,-0.03977772,-0.02491412,0.,0.00115493,0.00242071,0
 .,-0.26152351,0.02042325,0.,-0.01324908,-0.00143430,0.,0.65266729,-0.0
 0358012,-0.00102502,0.,0.00008909,0.00002594,0.,-0.00025234,-0.0004672
 5,0.,0.00478548,-0.00380648,0.,-0.00051568,0.00050385,0.,-0.04337427,-
 0.00479640,0.,-0.00175157,0.00105790,0.,0.02203483,-0.09901997,0.,0.02
 910334,0.00155918,0.,0.08112300,0.80585622,0.,0.,-0.00003723,0.,0.,0.0
 0037139,0.,0.,-0.00159627,0.,0.,0.01239532,0.,0.,-0.00021492,0.,0.,0.0
 0474039,0.,0.,-0.00646879,0.,0.,-0.06233467,0.,0.,0.00287283,0.,0.,0.1
 3217734,-0.00007205,-0.00006649,0.,-0.00003773,-0.00004880,0.,0.000007
 39,-0.00000643,0.,-0.00001226,-0.00051575,0.,0.00030152,-0.00012175,0.
 ,0.00163036,0.00195248,0.,-0.00001549,-0.00143777,0.,-0.01372403,0.029
 26919,0.,-0.00523543,-0.00080490,0.,-0.11996797,0.11348685,0.,0.125886
 20,0.00015490,-0.00007111,0.,0.00000140,0.00000252,0.,0.00001681,0.000
 02098,0.,-0.00007596,0.00050396,0.,-0.00012177,-0.00015963,0.,-0.00108
 374,0.00093456,0.,0.00055495,0.00050247,0.,-0.00114125,0.00136987,0.,-
 0.00063881,0.00063537,0.,0.11220705,-0.26553158,0.,-0.12104093,0.28583
 192,0.,0.,-0.00003620,0.,0.,0.00001056,0.,0.,0.00002247,0.,0.,-0.00021
 489,0.,0.,0.00007795,0.,0.,-0.00150118,0.,0.,0.00022907,0.,0.,0.002984
 53,0.,0.,0.00346513,0.,0.,-0.04162444,0.,0.,0.02722853,-0.00013857,0.0
 0161457,0.,0.00005276,-0.00003062,0.,-0.00014994,-0.00015315,0.,-0.002
 65211,-0.00358048,0.,-0.00007203,0.00015487,0.,0.00046986,0.00842245,0
 .,0.00009363,-0.00048804,0.,-0.03490999,-0.04126735,0.,0.00161543,-0.0
 0080981,0.,-0.22705592,-0.18866006,0.,0.01132364,0.01446321,0.,0.71327
 040,0.00161441,0.00183486,0.,0.00003396,-0.00002918,0.,0.00000293,0.00
 006622,0.,-0.00437935,-0.00102493,0.,-0.00006652,-0.00007113,0.,0.0103
 3112,0.00749036,0.,-0.00000550,0.00031553,0.,-0.02602451,-0.00494777,0
 .,0.00137241,0.00123241,0.,-0.17480578,-0.41659803,0.,-0.01745805,-0.0
 2260521,0.,0.08842330,0.77545688,0.,0.,-0.00006314,0.,0.,0.00001447,0.
 ,0.,-0.00001945,0.,0.,-0.00003724,0.,0.,-0.00003621,0.,0.,0.00232621,0
 .,0.,0.00011129,0.,0.,0.00630198,0.,0.,-0.00145680,0.,0.,-0.04912273,0
 .,0.,0.00520707,0.,0.,0.10183987,0.00005276,0.00003396,0.,0.00000081,0
 .00000416,0.,0.00000868,0.00000729,0.,-0.00004893,0.00008910,0.,-0.000
 03773,0.00000139,0.,0.00009686,-0.00005930,0.,-0.00013913,0.00015038,0
 .,0.00138639,-0.00151841,0.,0.00002387,0.00053888,0.,0.01188156,-0.015
 86298,0.,-0.00119045,-0.00302066,0.,-0.11627525,0.11336511,0.,0.112711
 27,-0.00003062,-0.00002920,0.,0.00000416,0.00000922,0.,-0.00000524,-0.
 00000505,0.,0.00005734,0.00002598,0.,-0.00004879,0.00000251,0.,-0.0005
 2516,0.00021421,0.,0.00013280,0.00024755,0.,0.00247079,0.00143426,0.,-
 0.00139447,0.00028962,0.,0.01428748,-0.02218562,0.,-0.00331461,-0.0027
 2513,0.,0.10974514,-0.28201205,0.,-0.11981799,0.30214837,0.,0.,0.00001
 448,0.,0.,0.00001437,0.,0.,-0.00009548,0.,0.,0.00037138,0.,0.,0.000010
 56,0.,0.,-0.00001967,0.,0.,0.00033568,0.,0.,-0.00759612,0.,0.,0.000287
 21,0.,0.,0.00466516,0.,0.,0.01122536,0.,0.,-0.03351009,0.,0.,0.0220879
 1,-0.00014996,0.00000293,0.,0.00000868,-0.00000524,0.,-0.00002841,-0.0
 0002879,0.,0.00010108,-0.00025239,0.,0.00000738,0.00001682,0.,-0.00071
 266,0.00033405,0.,0.00000115,-0.00007524,0.,0.00091678,-0.00300108,0.,
 0.00034781,0.00009544,0.,-0.01279887,0.00337443,0.,0.00110631,-0.00027
 520,0.,-0.34557191,0.00759648,0.,-0.00847069,-0.00156083,0.,0.36524332
 ,-0.00015314,0.00006621,0.,0.00000729,-0.00000505,0.,-0.00002879,-0.00
 003718,0.,-0.00005319,-0.00046723,0.,-0.00000643,0.00002098,0.,-0.0013
 2572,0.00088539,0.,0.00009450,-0.00000489,0.,-0.00061240,-0.00454646,0
 .,-0.00042053,0.00020005,0.,-0.02964224,0.00442724,0.,0.00010696,0.001
 29101,0.,0.01216598,-0.05910796,0.,0.02608906,0.00258533,0.,-0.0062213
 6,0.05469256,0.,0.,-0.00001946,0.,0.,-0.00009548,0.,0.,0.00030220,0.,0
 .,-0.00159629,0.,0.,0.00002248,0.,0.,0.00015858,0.,0.,0.00017363,0.,0.
 ,0.01204176,0.,0.,-0.00026542,0.,0.,0.00417661,0.,0.,-0.00707395,0.,0.
 ,-0.03155523,0.,0.,0.00220927,0.,0.,0.02152130\\-0.00004854,0.00000282
 ,0.,0.00002303,-0.00000636,0.,0.00001575,-0.00000459,0.,0.00000307,-0.
 00004037,0.,-0.00001013,0.00002182,0.,-0.00004478,0.00008323,0.,0.0000
 2756,-0.00003404,0.,0.00004086,-0.00008198,0.,-0.00002711,0.00003326,0
 .,0.00000050,0.00004181,0.,0.00000937,-0.00002293,0.,0.00004739,-0.000
 00294,0.,-0.00002177,0.00000635,0.,-0.00001519,0.00000393,0.\\\@


 IT IS NOT EASY TO DESCRIBE
     THE SEA WITH THE MOUTH

                   -- KOKYU
 Job cpu time:  0 days  0 hours  0 minutes 58.9 seconds.
 File lengths (MBytes):  RWF=     23 Int=      0 D2E=      0 Chk=      2 Scr=      1
 Normal termination of Gaussian 09 at Tue Mar  2 12:08:29 2021.
