 Entering Gaussian System, Link 0=g09
 Input=octa1.com
 Output=octa1.log
 Initial command:
 /home/student/g09/l1.exe /home/student/singh/Gau-20898.inp -scrdir=/home/student/singh/
 Entering Link 1 = /home/student/g09/l1.exe PID=     20900.
  
 Copyright (c) 1988,1990,1992,1993,1995,1998,2003,2009,2011,
            Gaussian, Inc.  All Rights Reserved.
  
 This is part of the Gaussian(R) 09 program.  It is based on
 the Gaussian(R) 03 system (copyright 2003, Gaussian, Inc.),
 the Gaussian(R) 98 system (copyright 1998, Gaussian, Inc.),
 the Gaussian(R) 94 system (copyright 1995, Gaussian, Inc.),
 the Gaussian 92(TM) system (copyright 1992, Gaussian, Inc.),
 the Gaussian 90(TM) system (copyright 1990, Gaussian, Inc.),
 the Gaussian 88(TM) system (copyright 1988, Gaussian, Inc.),
 the Gaussian 86(TM) system (copyright 1986, Carnegie Mellon
 University), and the Gaussian 82(TM) system (copyright 1983,
 Carnegie Mellon University). Gaussian is a federally registered
 trademark of Gaussian, Inc.
  
 This software contains proprietary and confidential information,
 including trade secrets, belonging to Gaussian, Inc.
  
 This software is provided under written license and may be
 used, copied, transmitted, or stored only in accord with that
 written license.
  
 The following legend is applicable only to US Government
 contracts under FAR:
  
                    RESTRICTED RIGHTS LEGEND
  
 Use, reproduction and disclosure by the US Government is
 subject to restrictions as set forth in subparagraphs (a)
 and (c) of the Commercial Computer Software - Restricted
 Rights clause in FAR 52.227-19.
  
 Gaussian, Inc.
 340 Quinnipiac St., Bldg. 40, Wallingford CT 06492
  
  
 ---------------------------------------------------------------
 Warning -- This program may not be used in any manner that
 competes with the business of Gaussian, Inc. or will provide
 assistance to any competitor of Gaussian, Inc.  The licensee
 of this program is prohibited from giving any competitor of
 Gaussian, Inc. access to this program.  By using this program,
 the user acknowledges that Gaussian, Inc. is engaged in the
 business of creating and licensing software in the field of
 computational chemistry and represents and warrants to the
 licensee that it is not a competitor of Gaussian, Inc. and that
 it will not use this program in any manner prohibited above.
 ---------------------------------------------------------------
  

 Cite this work as:
 Gaussian 09, Revision C.01,
 M. J. Frisch, G. W. Trucks, H. B. Schlegel, G. E. Scuseria, 
 M. A. Robb, J. R. Cheeseman, G. Scalmani, V. Barone, B. Mennucci, 
 G. A. Petersson, H. Nakatsuji, M. Caricato, X. Li, H. P. Hratchian, 
 A. F. Izmaylov, J. Bloino, G. Zheng, J. L. Sonnenberg, M. Hada, 
 M. Ehara, K. Toyota, R. Fukuda, J. Hasegawa, M. Ishida, T. Nakajima, 
 Y. Honda, O. Kitao, H. Nakai, T. Vreven, J. A. Montgomery, Jr., 
 J. E. Peralta, F. Ogliaro, M. Bearpark, J. J. Heyd, E. Brothers, 
 K. N. Kudin, V. N. Staroverov, T. Keith, R. Kobayashi, J. Normand, 
 K. Raghavachari, A. Rendell, J. C. Burant, S. S. Iyengar, J. Tomasi, 
 M. Cossi, N. Rega, J. M. Millam, M. Klene, J. E. Knox, J. B. Cross, 
 V. Bakken, C. Adamo, J. Jaramillo, R. Gomperts, R. E. Stratmann, 
 O. Yazyev, A. J. Austin, R. Cammi, C. Pomelli, J. W. Ochterski, 
 R. L. Martin, K. Morokuma, V. G. Zakrzewski, G. A. Voth, 
 P. Salvador, J. J. Dannenberg, S. Dapprich, A. D. Daniels, 
 O. Farkas, J. B. Foresman, J. V. Ortiz, J. Cioslowski, 
 and D. J. Fox, Gaussian, Inc., Wallingford CT, 2010.
 
 ******************************************
 Gaussian 09:  EM64L-G09RevC.01 23-Sep-2011
                 2-Mar-2021 
 ******************************************
 %chk=octa1.chk
 -----------------------------------------
 # opt freq b3lyp/6-31g* geom=connectivity
 -----------------------------------------
 1/14=-1,18=20,19=15,26=3,38=1,57=2/1,3;
 2/9=110,12=2,17=6,18=5,40=1/2;
 3/5=1,6=6,7=1,11=2,16=1,25=1,30=1,71=1,74=-5/1,2,3;
 4//1;
 5/5=2,38=5/2;
 6/7=2,8=2,9=2,10=2,28=1/1;
 7//1,2,3,16;
 1/14=-1,18=20,19=15/3(2);
 2/9=110/2;
 99//99;
 2/9=110/2;
 3/5=1,6=6,7=1,11=2,16=1,25=1,30=1,71=1,74=-5/1,2,3;
 4/5=5,16=3/1;
 5/5=2,38=5/2;
 7//1,2,3,16;
 1/14=-1,18=20,19=15/3(-5);
 2/9=110/2;
 6/7=2,8=2,9=2,10=2,19=2,28=1/1;
 99/9=1/99;
 -------------------
 Title Card Required
 -------------------
 Charge =  0 Multiplicity = 1
 Symbolic Z-Matrix:
 C                    -4.61988  -0.20468   0. 
 H                    -4.08672  -1.13238   0. 
 H                    -5.68988  -0.20468   0. 
 C                    -3.94461   0.9703    0. 
 H                    -4.47777   1.898     0. 
 C                    -2.40461   0.9703    0. 
 H                    -1.87145   0.04259   0. 
 C                    -1.72237   2.14124   0. 
 H                    -2.25001   3.0721    0. 
 C                    -0.18239   2.13209   0. 
 H                     0.34525   1.20124   0. 
 C                     0.5068    3.29896   0. 
 H                    -0.01531   4.23294   0. 
 C                     2.04669   3.28066   0. 
 H                     2.56879   2.34669   0. 
 C                     2.7428    4.44342   0. 
 H                     2.22625   5.38048   0. 
 H                     3.81263   4.42435   0. 
 

 GradGradGradGradGradGradGradGradGradGradGradGradGradGradGradGradGradGrad
 Berny optimization.
 Initialization pass.
                           ----------------------------
                           !    Initial Parameters    !
                           ! (Angstroms and Degrees)  !
 --------------------------                            --------------------------
 ! Name  Definition              Value          Derivative Info.                !
 --------------------------------------------------------------------------------
 ! R1    R(1,2)                  1.07           estimate D2E/DX2                !
 ! R2    R(1,3)                  1.07           estimate D2E/DX2                !
 ! R3    R(1,4)                  1.3552         estimate D2E/DX2                !
 ! R4    R(4,5)                  1.07           estimate D2E/DX2                !
 ! R5    R(4,6)                  1.54           estimate D2E/DX2                !
 ! R6    R(6,7)                  1.07           estimate D2E/DX2                !
 ! R7    R(6,8)                  1.3552         estimate D2E/DX2                !
 ! R8    R(8,9)                  1.07           estimate D2E/DX2                !
 ! R9    R(8,10)                 1.54           estimate D2E/DX2                !
 ! R10   R(10,11)                1.07           estimate D2E/DX2                !
 ! R11   R(10,12)                1.3552         estimate D2E/DX2                !
 ! R12   R(12,13)                1.07           estimate D2E/DX2                !
 ! R13   R(12,14)                1.54           estimate D2E/DX2                !
 ! R14   R(14,15)                1.07           estimate D2E/DX2                !
 ! R15   R(14,16)                1.3552         estimate D2E/DX2                !
 ! R16   R(16,17)                1.07           estimate D2E/DX2                !
 ! R17   R(16,18)                1.07           estimate D2E/DX2                !
 ! A1    A(2,1,3)              119.8865         estimate D2E/DX2                !
 ! A2    A(2,1,4)              120.2269         estimate D2E/DX2                !
 ! A3    A(3,1,4)              119.8865         estimate D2E/DX2                !
 ! A4    A(1,4,5)              120.2269         estimate D2E/DX2                !
 ! A5    A(1,4,6)              119.8865         estimate D2E/DX2                !
 ! A6    A(5,4,6)              119.8865         estimate D2E/DX2                !
 ! A7    A(4,6,7)              119.8865         estimate D2E/DX2                !
 ! A8    A(4,6,8)              120.2269         estimate D2E/DX2                !
 ! A9    A(7,6,8)              119.8865         estimate D2E/DX2                !
 ! A10   A(6,8,9)              120.2269         estimate D2E/DX2                !
 ! A11   A(6,8,10)             119.8865         estimate D2E/DX2                !
 ! A12   A(9,8,10)             119.8865         estimate D2E/DX2                !
 ! A13   A(8,10,11)            119.8865         estimate D2E/DX2                !
 ! A14   A(8,10,12)            120.2269         estimate D2E/DX2                !
 ! A15   A(11,10,12)           119.8865         estimate D2E/DX2                !
 ! A16   A(10,12,13)           120.2269         estimate D2E/DX2                !
 ! A17   A(10,12,14)           119.8865         estimate D2E/DX2                !
 ! A18   A(13,12,14)           119.8865         estimate D2E/DX2                !
 ! A19   A(12,14,15)           119.8865         estimate D2E/DX2                !
 ! A20   A(12,14,16)           120.2269         estimate D2E/DX2                !
 ! A21   A(15,14,16)           119.8865         estimate D2E/DX2                !
 ! A22   A(14,16,17)           120.2269         estimate D2E/DX2                !
 ! A23   A(14,16,18)           119.8865         estimate D2E/DX2                !
 ! A24   A(17,16,18)           119.8865         estimate D2E/DX2                !
 ! D1    D(2,1,4,5)            180.0            estimate D2E/DX2                !
 ! D2    D(2,1,4,6)              0.0            estimate D2E/DX2                !
 ! D3    D(3,1,4,5)              0.0            estimate D2E/DX2                !
 ! D4    D(3,1,4,6)            180.0            estimate D2E/DX2                !
 ! D5    D(1,4,6,7)              0.0            estimate D2E/DX2                !
 ! D6    D(1,4,6,8)            180.0            estimate D2E/DX2                !
 ! D7    D(5,4,6,7)            180.0            estimate D2E/DX2                !
 ! D8    D(5,4,6,8)              0.0            estimate D2E/DX2                !
 ! D9    D(4,6,8,9)              0.0            estimate D2E/DX2                !
 ! D10   D(4,6,8,10)           180.0            estimate D2E/DX2                !
 ! D11   D(7,6,8,9)            180.0            estimate D2E/DX2                !
 ! D12   D(7,6,8,10)             0.0            estimate D2E/DX2                !
 ! D13   D(6,8,10,11)            0.0            estimate D2E/DX2                !
 ! D14   D(6,8,10,12)          180.0            estimate D2E/DX2                !
 ! D15   D(9,8,10,11)          180.0            estimate D2E/DX2                !
 ! D16   D(9,8,10,12)            0.0            estimate D2E/DX2                !
 ! D17   D(8,10,12,13)           0.0            estimate D2E/DX2                !
 ! D18   D(8,10,12,14)         180.0            estimate D2E/DX2                !
 ! D19   D(11,10,12,13)        180.0            estimate D2E/DX2                !
 ! D20   D(11,10,12,14)          0.0            estimate D2E/DX2                !
 ! D21   D(10,12,14,15)          0.0            estimate D2E/DX2                !
 ! D22   D(10,12,14,16)        180.0            estimate D2E/DX2                !
 ! D23   D(13,12,14,15)        180.0            estimate D2E/DX2                !
 ! D24   D(13,12,14,16)          0.0            estimate D2E/DX2                !
 ! D25   D(12,14,16,17)          0.0            estimate D2E/DX2                !
 ! D26   D(12,14,16,18)        180.0            estimate D2E/DX2                !
 ! D27   D(15,14,16,17)        180.0            estimate D2E/DX2                !
 ! D28   D(15,14,16,18)          0.0            estimate D2E/DX2                !
 --------------------------------------------------------------------------------
 Trust Radius=3.00D-01 FncErr=1.00D-07 GrdErr=1.00D-06
 Number of steps in this run=     79 maximum allowed number of steps=    108.
 GradGradGradGradGradGradGradGradGradGradGradGradGradGradGradGradGradGrad

                          Input orientation:                          
 ---------------------------------------------------------------------
 Center     Atomic      Atomic             Coordinates (Angstroms)
 Number     Number       Type             X           Y           Z
 ---------------------------------------------------------------------
      1          6           0       -4.619883   -0.204678    0.000000
      2          1           0       -4.086719   -1.132383    0.000000
      3          1           0       -5.689883   -0.204678    0.000000
      4          6           0       -3.944609    0.970299    0.000000
      5          1           0       -4.477773    1.898004    0.000000
      6          6           0       -2.404609    0.970299    0.000000
      7          1           0       -1.871445    0.042594    0.000000
      8          6           0       -1.722366    2.141243    0.000000
      9          1           0       -2.250008    3.072100    0.000000
     10          6           0       -0.182393    2.132094    0.000000
     11          1           0        0.345250    1.201237    0.000000
     12          6           0        0.506796    3.298964    0.000000
     13          1           0       -0.015307    4.232939    0.000000
     14          6           0        2.046687    3.280665    0.000000
     15          1           0        2.568790    2.346690    0.000000
     16          6           0        2.742796    4.443420    0.000000
     17          1           0        2.226252    5.380480    0.000000
     18          1           0        3.812626    4.424349    0.000000
 ---------------------------------------------------------------------
                    Distance matrix (angstroms):
                    1          2          3          4          5
     1  C    0.000000
     2  H    1.070000   0.000000
     3  H    1.070000   1.852234   0.000000
     4  C    1.355200   2.107479   2.103938   0.000000
     5  H    2.107479   3.055514   2.427032   1.070000   0.000000
     6  C    2.507591   2.692725   3.489068   1.540000   2.271265
     7  H    2.759539   2.507591   3.826436   2.271265   3.199295
     8  C    3.728131   4.038168   4.609181   2.511867   2.766123
     9  H    4.043956   4.588157   4.750791   2.699859   2.518221
    10  C    5.015160   5.089261   5.982721   3.937517   4.301754
    11  H    5.160343   5.008806   6.196727   4.296070   4.873092
    12  C    6.209537   6.382572   7.118591   5.023712   5.177703
    13  H    6.394886   6.735212   7.203698   5.107273   5.036420
    14  C    7.522684   7.556035   8.485407   6.421325   6.669357
    15  H    7.628007   7.509977   8.643793   6.657238   7.060833
    16  C    8.707116   8.816568   9.628857   7.535513   7.656093
    17  H    8.835359   9.070336   9.688095   7.584802   7.554574
    18  H    9.619517   9.657998  10.570032   8.491475   8.666783
                    6          7          8          9         10
     6  C    0.000000
     7  H    1.070000   0.000000
     8  C    1.355200   2.103938   0.000000
     9  H    2.107479   3.053066   1.070000   0.000000
    10  C    2.507591   2.686802   1.540000   2.271265   0.000000
    11  H    2.759539   2.501238   2.271265   3.199295   1.070000
    12  C    3.728131   4.032366   2.511867   2.766123   1.355200
    13  H    4.043956   4.583038   2.699859   2.518221   2.107479
    14  C    5.015160   5.082997   3.937517   4.301754   2.507591
    15  H    5.160343   5.002454   4.296070   4.873092   2.759539
    16  C    6.209537   6.376401   5.023712   5.177703   3.728131
    17  H    6.394886   6.729350   5.107273   5.036420   4.043956
    18  H    7.112276   7.176938   5.987379   6.211611   4.605932
                   11         12         13         14         15
    11  H    0.000000
    12  C    2.103938   0.000000
    13  H    3.053066   1.070000   0.000000
    14  C    2.686802   1.540000   2.271265   0.000000
    15  H    2.501238   2.271265   3.199295   1.070000   0.000000
    16  C    4.032366   2.511867   2.766123   1.355200   2.103938
    17  H    4.583038   2.699859   2.518221   2.107479   3.053066
    18  H    4.734041   3.492135   3.832716   2.103938   2.421527
                   16         17         18
    16  C    0.000000
    17  H    1.070000   0.000000
    18  H    1.070000   1.852234   0.000000
 Stoichiometry    C8H10
 Framework group  CS[SG(C8H10)]
 Deg. of freedom    33
 Full point group                 CS      NOp   2
 Largest Abelian subgroup         CS      NOp   2
 Largest concise Abelian subgroup C1      NOp   1
                         Standard orientation:                         
 ---------------------------------------------------------------------
 Center     Atomic      Atomic             Coordinates (Angstroms)
 Number     Number       Type             X           Y           Z
 ---------------------------------------------------------------------
      1          6           0       -0.365820    4.336239    0.000000
      2          1           0       -1.434969    4.293567    0.000000
      3          1           0        0.129923    5.284468    0.000000
      4          6           0        0.362578    3.193434    0.000000
      5          1           0        1.431727    3.236105    0.000000
      6          6           0       -0.350921    1.828692    0.000000
      7          1           0       -1.420070    1.786021    0.000000
      8          6           0        0.370674    0.681579    0.000000
      9          1           0        1.440057    0.717898    0.000000
     10          6           0       -0.350921   -0.678899    0.000000
     11          1           0       -1.420305   -0.715217    0.000000
     12          6           0        0.363846   -1.830279    0.000000
     13          1           0        1.433426   -1.800314    0.000000
     14          6           0       -0.365820   -3.186445    0.000000
     15          1           0       -1.435400   -3.216409    0.000000
     16          6           0        0.342094   -4.342051    0.000000
     17          1           0        1.411833   -4.318443    0.000000
     18          1           0       -0.170471   -5.281294    0.000000
 ---------------------------------------------------------------------
 Rotational constants (GHZ):     17.8772038      0.5551974      0.5384745
 Standard basis: 6-31G(d) (6D, 7F)
 There are   108 symmetry adapted basis functions of A'  symmetry.
 There are    32 symmetry adapted basis functions of A"  symmetry.
 Integral buffers will be    131072 words long.
 Raffenetti 2 integral format.
 Two-electron integral symmetry is turned on.
   140 basis functions,   264 primitive gaussians,   140 cartesian basis functions
    29 alpha electrons       29 beta electrons
       nuclear repulsion energy       293.0134443259 Hartrees.
 NAtoms=   18 NActive=   18 NUniq=   18 SFac= 1.00D+00 NAtFMM=   60 NAOKFM=F Big=F
 One-electron integrals computed using PRISM.
 NBasis=   140 RedAO= T  NBF=   108    32
 NBsUse=   140 1.00D-06 NBFU=   108    32
 Harris functional with IExCor=  402 diagonalized for initial guess.
 ExpMin= 1.61D-01 ExpMax= 3.05D+03 ExpMxC= 4.57D+02 IAcc=1 IRadAn=         1 AccDes= 0.00D+00
 HarFok:  IExCor=  402 AccDes= 0.00D+00 IRadAn=         1 IDoV= 1
 ScaDFX=  1.000000  1.000000  1.000000  1.000000
 FoFCou: FMM=F IPFlag=           0 FMFlag=      100000 FMFlg1=           0
         NFxFlg=           0 DoJE=T BraDBF=F KetDBF=T FulRan=T
         Omega=  0.000000  0.000000  1.000000  0.000000  0.000000 ICntrl=     500 IOpCl=  0
         NMat0=    1 NMatS0=    1 NMatT0=    0 NMatD0=    1 NMtDS0=    0 NMtDT0=    0
         I1Cent=           4 NGrid=           0.
 Petite list used in FoFCou.
 Initial guess orbital symmetries:
       Occupied  (A') (A') (A') (A') (A') (A') (A') (A') (A') (A')
                 (A') (A') (A') (A') (A') (A') (A') (A') (A') (A')
                 (A') (A') (A') (A') (A') (A") (A") (A") (A")
       Virtual   (A") (A") (A") (A") (A') (A') (A') (A') (A') (A')
                 (A') (A') (A') (A') (A') (A') (A') (A') (A') (A')
                 (A') (A') (A') (A") (A') (A") (A") (A') (A") (A')
                 (A') (A') (A') (A") (A') (A') (A") (A") (A") (A')
                 (A') (A') (A') (A') (A') (A') (A') (A') (A') (A')
                 (A') (A') (A') (A') (A') (A') (A') (A') (A') (A')
                 (A") (A") (A") (A') (A') (A") (A") (A') (A") (A")
                 (A") (A") (A') (A') (A') (A') (A') (A") (A') (A')
                 (A') (A") (A') (A') (A") (A') (A') (A') (A') (A')
                 (A") (A") (A") (A") (A') (A') (A') (A') (A') (A')
                 (A') (A') (A') (A') (A') (A') (A') (A') (A') (A')
                 (A')
 The electronic state of the initial guess is 1-A'.
 Requested convergence on RMS density matrix=1.00D-08 within 128 cycles.
 Requested convergence on MAX density matrix=1.00D-06.
 Requested convergence on             energy=1.00D-06.
 No special actions if energy rises.
 Integral accuracy reduced to 1.0D-05 until final iterations.
 Initial convergence to 1.0D-05 achieved.  Increase integral accuracy.
 SCF Done:  E(RB3LYP) =  -310.784987290     A.U. after   14 cycles
             Convg  =    0.1677D-08             -V/T =  2.0110

 **********************************************************************

            Population analysis using the SCF density.

 **********************************************************************

 Orbital symmetries:
       Occupied  (A') (A') (A') (A') (A') (A') (A') (A') (A') (A')
                 (A') (A') (A') (A') (A') (A') (A') (A') (A') (A')
                 (A') (A') (A') (A') (A") (A') (A") (A") (A")
       Virtual   (A") (A") (A") (A") (A') (A') (A') (A') (A') (A')
                 (A') (A') (A') (A') (A') (A') (A') (A') (A') (A')
                 (A') (A') (A') (A") (A') (A") (A") (A') (A") (A')
                 (A') (A") (A') (A') (A") (A') (A') (A") (A") (A')
                 (A') (A') (A') (A') (A') (A') (A') (A') (A') (A')
                 (A') (A') (A') (A') (A') (A') (A') (A') (A') (A')
                 (A') (A") (A") (A") (A') (A") (A') (A") (A") (A")
                 (A") (A") (A') (A') (A') (A') (A') (A") (A') (A')
                 (A') (A") (A') (A') (A") (A') (A') (A') (A') (A')
                 (A") (A") (A") (A") (A') (A') (A') (A') (A') (A')
                 (A') (A') (A') (A') (A') (A') (A') (A') (A') (A')
                 (A')
 The electronic state is 1-A'.
 Alpha  occ. eigenvalues --  -10.19760 -10.19727 -10.19645 -10.19625 -10.19513
 Alpha  occ. eigenvalues --  -10.19505 -10.17999 -10.17962  -0.80912  -0.78512
 Alpha  occ. eigenvalues --   -0.74943  -0.70900  -0.60880  -0.56883  -0.56416
 Alpha  occ. eigenvalues --   -0.55328  -0.47721  -0.45864  -0.45170  -0.41163
 Alpha  occ. eigenvalues --   -0.40057  -0.38442  -0.38075  -0.36124  -0.33197
 Alpha  occ. eigenvalues --   -0.33049  -0.30172  -0.25552  -0.20179
 Alpha virt. eigenvalues --   -0.04429   0.01552   0.06611   0.08876   0.10161
 Alpha virt. eigenvalues --    0.12776   0.12847   0.13074   0.14650   0.14876
 Alpha virt. eigenvalues --    0.17090   0.18632   0.19528   0.20475   0.26767
 Alpha virt. eigenvalues --    0.31735   0.32673   0.33958   0.35696   0.38071
 Alpha virt. eigenvalues --    0.39910   0.46579   0.50163   0.52611   0.53857
 Alpha virt. eigenvalues --    0.54413   0.57519   0.58586   0.59215   0.59966
 Alpha virt. eigenvalues --    0.61378   0.62691   0.63091   0.64877   0.65631
 Alpha virt. eigenvalues --    0.67622   0.68908   0.71416   0.72256   0.82860
 Alpha virt. eigenvalues --    0.85173   0.86773   0.87378   0.88097   0.88793
 Alpha virt. eigenvalues --    0.88865   0.90256   0.93082   0.93597   0.94984
 Alpha virt. eigenvalues --    0.98442   1.01572   1.04552   1.04716   1.07384
 Alpha virt. eigenvalues --    1.10028   1.12745   1.21554   1.23831   1.29842
 Alpha virt. eigenvalues --    1.32782   1.34679   1.34858   1.37022   1.39089
 Alpha virt. eigenvalues --    1.43941   1.46535   1.48166   1.54753   1.62139
 Alpha virt. eigenvalues --    1.70518   1.73078   1.74885   1.76679   1.78221
 Alpha virt. eigenvalues --    1.93589   1.94329   1.95458   2.00099   2.02814
 Alpha virt. eigenvalues --    2.03004   2.07945   2.11729   2.14487   2.20806
 Alpha virt. eigenvalues --    2.22892   2.23359   2.29091   2.31808   2.35337
 Alpha virt. eigenvalues --    2.38873   2.39443   2.42473   2.43105   2.48826
 Alpha virt. eigenvalues --    2.67346   2.69923   2.75050   2.83353   2.86622
 Alpha virt. eigenvalues --    2.88483   2.99684   3.00917   4.05422   4.06750
 Alpha virt. eigenvalues --    4.09611   4.15802   4.19005   4.31117   4.41515
 Alpha virt. eigenvalues --    4.50146
          Condensed to atoms (all electrons):
              1          2          3          4          5          6
     1  C    5.056942   0.372694   0.365401   0.629656  -0.051660  -0.026806
     2  H    0.372694   0.561229  -0.040486  -0.036036   0.005716  -0.011422
     3  H    0.365401  -0.040486   0.559632  -0.024302  -0.006571   0.003903
     4  C    0.629656  -0.036036  -0.024302   4.796212   0.368757   0.409785
     5  H   -0.051660   0.005716  -0.006571   0.368757   0.591744  -0.044654
     6  C   -0.026806  -0.011422   0.003903   0.409785  -0.044654   4.906344
     7  H   -0.003494   0.004397  -0.000012  -0.043493   0.003700   0.365368
     8  C    0.001926   0.000459  -0.000169  -0.017601  -0.003813   0.595684
     9  H    0.000369   0.000014  -0.000006  -0.007985   0.003910  -0.053012
    10  C   -0.000179  -0.000003   0.000002   0.003209   0.000134  -0.015405
    11  H   -0.000002   0.000002   0.000000   0.000120   0.000005  -0.003400
    12  C    0.000003   0.000000   0.000000  -0.000170  -0.000003   0.001719
    13  H    0.000000   0.000000   0.000000  -0.000004   0.000001   0.000411
    14  C    0.000000   0.000000   0.000000   0.000001   0.000000  -0.000170
    15  H    0.000000   0.000000   0.000000   0.000000   0.000000  -0.000004
    16  C    0.000000   0.000000   0.000000   0.000000   0.000000   0.000003
    17  H    0.000000   0.000000   0.000000   0.000000   0.000000   0.000000
    18  H    0.000000   0.000000   0.000000   0.000000   0.000000   0.000000
              7          8          9         10         11         12
     1  C   -0.003494   0.001926   0.000369  -0.000179  -0.000002   0.000003
     2  H    0.004397   0.000459   0.000014  -0.000003   0.000002   0.000000
     3  H   -0.000012  -0.000169  -0.000006   0.000002   0.000000   0.000000
     4  C   -0.043493  -0.017601  -0.007985   0.003209   0.000120  -0.000170
     5  H    0.003700  -0.003813   0.003910   0.000134   0.000005  -0.000003
     6  C    0.365368   0.595684  -0.053012  -0.015405  -0.003400   0.001719
     7  H    0.592424  -0.051907   0.005974  -0.008402   0.003878   0.000427
     8  C   -0.051907   4.917299   0.366476   0.386065  -0.044749  -0.015933
     9  H    0.005974   0.366476   0.593609  -0.044623   0.003604  -0.003351
    10  C   -0.008402   0.386065  -0.044623   4.916956   0.366478   0.595647
    11  H    0.003878  -0.044749   0.003604   0.366478   0.594027  -0.053237
    12  C    0.000427  -0.015933  -0.003351   0.595647  -0.053237   4.906847
    13  H    0.000014  -0.008232   0.003767  -0.051689   0.005974   0.365309
    14  C   -0.000004   0.003214   0.000114  -0.017058  -0.008146   0.409760
    15  H    0.000001   0.000141   0.000005  -0.003862   0.004025  -0.044836
    16  C    0.000000  -0.000179  -0.000002   0.001867   0.000384  -0.026907
    17  H    0.000000  -0.000002   0.000001   0.000453   0.000015  -0.011351
    18  H    0.000000   0.000002   0.000000  -0.000166  -0.000007   0.003904
             13         14         15         16         17         18
     1  C    0.000000   0.000000   0.000000   0.000000   0.000000   0.000000
     2  H    0.000000   0.000000   0.000000   0.000000   0.000000   0.000000
     3  H    0.000000   0.000000   0.000000   0.000000   0.000000   0.000000
     4  C   -0.000004   0.000001   0.000000   0.000000   0.000000   0.000000
     5  H    0.000001   0.000000   0.000000   0.000000   0.000000   0.000000
     6  C    0.000411  -0.000170  -0.000004   0.000003   0.000000   0.000000
     7  H    0.000014  -0.000004   0.000001   0.000000   0.000000   0.000000
     8  C   -0.008232   0.003214   0.000141  -0.000179  -0.000002   0.000002
     9  H    0.003767   0.000114   0.000005  -0.000002   0.000001   0.000000
    10  C   -0.051689  -0.017058  -0.003862   0.001867   0.000453  -0.000166
    11  H    0.005974  -0.008146   0.004025   0.000384   0.000015  -0.000007
    12  C    0.365309   0.409760  -0.044836  -0.026907  -0.011351   0.003904
    13  H    0.592096  -0.043402   0.003704  -0.003450   0.004341  -0.000017
    14  C   -0.043402   4.795784   0.368771   0.629904  -0.036040  -0.024107
    15  H    0.003704   0.368771   0.592662  -0.051915   0.005762  -0.006704
    16  C   -0.003450   0.629904  -0.051915   5.057416   0.372612   0.365471
    17  H    0.004341  -0.036040   0.005762   0.372612   0.561693  -0.040544
    18  H   -0.000017  -0.024107  -0.006704   0.365471  -0.040544   0.559637
 Mulliken atomic charges:
              1
     1  C   -0.344848
     2  H    0.143436
     3  H    0.142610
     4  C   -0.078149
     5  H    0.132735
     6  C   -0.128344
     7  H    0.131129
     8  C   -0.128681
     9  H    0.131136
    10  C   -0.129424
    11  H    0.131032
    12  C   -0.127828
    13  H    0.131178
    14  C   -0.078621
    15  H    0.132250
    16  C   -0.345203
    17  H    0.143061
    18  H    0.142531
 Sum of Mulliken atomic charges =   0.00000
 Mulliken charges with hydrogens summed into heavy atoms:
              1
     1  C   -0.058803
     4  C    0.054586
     6  C    0.002785
     8  C    0.002455
    10  C    0.001609
    12  C    0.003350
    14  C    0.053629
    16  C   -0.059612
 Sum of Mulliken charges with hydrogens summed into heavy atoms =   0.00000
 Electronic spatial extent (au):  <R**2>=           2025.1538
 Charge=              0.0000 electrons
 Dipole moment (field-independent basis, Debye):
    X=              0.0021    Y=              0.0204    Z=              0.0000  Tot=              0.0205
 Quadrupole moment (field-independent basis, Debye-Ang):
   XX=            -42.7170   YY=            -45.4263   ZZ=            -54.0114
   XY=              0.6664   XZ=              0.0000   YZ=              0.0000
 Traceless Quadrupole moment (field-independent basis, Debye-Ang):
   XX=              4.6679   YY=              1.9586   ZZ=             -6.6265
   XY=              0.6664   XZ=              0.0000   YZ=              0.0000
 Octapole moment (field-independent basis, Debye-Ang**2):
  XXX=              0.0480  YYY=              0.3974  ZZZ=              0.0000  XYY=              0.0064
  XXY=             -0.0045  XXZ=              0.0000  XZZ=              0.0022  YZZ=              0.0193
  YYZ=              0.0000  XYZ=              0.0000
 Hexadecapole moment (field-independent basis, Debye-Ang**3):
 XXXX=           -135.0302 YYYY=          -2430.0618 ZZZZ=            -56.4320 XXXY=             31.4014
 XXXZ=              0.0000 YYYX=             57.4783 YYYZ=              0.0000 ZZZX=              0.0000
 ZZZY=              0.0000 XXYY=           -418.4735 XXZZ=            -35.8774 YYZZ=           -497.6918
 XXYZ=              0.0000 YYXZ=              0.0000 ZZXY=             13.0356
 N-N= 2.930134443259D+02 E-N=-1.304401903837D+03  KE= 3.074176439310D+02
 Symmetry A'   KE= 2.990126695611D+02
 Symmetry A"   KE= 8.404974369949D+00
 Calling FoFJK, ICntrl=      2127 FMM=F ISym2X=1 I1Cent= 0 IOpClX= 0 NMat=1 NMatS=1 NMatT=0.
 ***** Axes restored to original set *****
 -------------------------------------------------------------------
 Center     Atomic                   Forces (Hartrees/Bohr)
 Number     Number              X              Y              Z
 -------------------------------------------------------------------
      1        6           0.010666610    0.030831150    0.000000000
      2        1           0.002446603   -0.011862944    0.000000000
      3        1          -0.011551278   -0.004678700    0.000000000
      4        6           0.044561653   -0.042983191    0.000000000
      5        1          -0.001458664    0.013077856    0.000000000
      6        6          -0.051798564    0.037455400    0.000000000
      7        1           0.001291046   -0.013016033    0.000000000
      8        6           0.053844217   -0.037401493    0.000000000
      9        1          -0.001704347    0.012777245    0.000000000
     10        6          -0.053502880    0.037641826    0.000000000
     11        1           0.001423396   -0.012978720    0.000000000
     12        6           0.051724490   -0.037803912    0.000000000
     13        1          -0.001422400    0.012832204    0.000000000
     14        6          -0.043043173    0.043342612    0.000000000
     15        1           0.001002772   -0.013367699    0.000000000
     16        6          -0.011853641   -0.030268886    0.000000000
     17        1          -0.002217243    0.011980831    0.000000000
     18        1           0.011591404    0.004422453    0.000000000
 -------------------------------------------------------------------
 Cartesian Forces:  Max     0.053844217 RMS     0.022805708

 GradGradGradGradGradGradGradGradGradGradGradGradGradGradGradGradGradGrad
 Berny optimization.
 Internal  Forces:  Max     0.046390981 RMS     0.011782603
 Search for a local minimum.
 Step number   1 out of a maximum of   79
 All quantities printed in internal units (Hartrees-Bohrs-Radians)
 Mixed Optimization -- RFO/linear search
 Second derivative matrix not updated -- first step.
 ITU=  0
 DSYEVD returned Info=          97 IAlg= 4 N=    48 NDim=    48 NE2=      666574 trying DSYEV.
     Eigenvalues ---    0.00237   0.00237   0.00237   0.01459   0.01459
     Eigenvalues ---    0.01459   0.01463   0.01463   0.01463   0.02681
     Eigenvalues ---    0.02681   0.02681   0.02681   0.02681   0.02681
     Eigenvalues ---    0.16000   0.16000   0.16000   0.16000   0.16000
     Eigenvalues ---    0.16000   0.16000   0.16000   0.16000   0.16000
     Eigenvalues ---    0.22000   0.22000   0.22000   0.22000   0.22000
     Eigenvalues ---    0.22000   0.28519   0.28519   0.28519   0.37230
     Eigenvalues ---    0.37230   0.37230   0.37230   0.37230   0.37230
     Eigenvalues ---    0.37230   0.37230   0.37230   0.37230   0.53930
     Eigenvalues ---    0.53930   0.53930   0.53930
 RFO step:  Lambda=-3.07170940D-02 EMin= 2.36824102D-03
 Linear search not attempted -- first point.
 Maximum step size (   0.300) exceeded in Quadratic search.
    -- Step size scaled by   0.937
 Iteration  1 RMS(Cart)=  0.05319931 RMS(Int)=  0.00061511
 Iteration  2 RMS(Cart)=  0.00163827 RMS(Int)=  0.00000018
 Iteration  3 RMS(Cart)=  0.00000024 RMS(Int)=  0.00000000
 ClnCor:  largest displacement from symmetrization is 9.68D-09 for atom    18.
 Variable       Old X    -DE/DX   Delta X   Delta X   Delta X     New X
                                 (Linear)    (Quad)   (Total)
    R1        2.02201   0.01150   0.00000   0.02673   0.02673   2.04874
    R2        2.02201   0.01155   0.00000   0.02684   0.02684   2.04885
    R3        2.56096  -0.01317   0.00000  -0.02163  -0.02163   2.53932
    R4        2.02201   0.01207   0.00000   0.02804   0.02804   2.05004
    R5        2.91018  -0.04467   0.00000  -0.13242  -0.13242   2.77776
    R6        2.02201   0.01193   0.00000   0.02772   0.02772   2.04973
    R7        2.56096  -0.00468   0.00000  -0.00769  -0.00769   2.55326
    R8        2.02201   0.01196   0.00000   0.02778   0.02778   2.04979
    R9        2.91018  -0.04639   0.00000  -0.13753  -0.13753   2.77265
   R10        2.02201   0.01199   0.00000   0.02787   0.02787   2.04988
   R11        2.56096  -0.00469   0.00000  -0.00771  -0.00771   2.55325
   R12        2.02201   0.01190   0.00000   0.02764   0.02764   2.04965
   R13        2.91018  -0.04471   0.00000  -0.13254  -0.13254   2.77763
   R14        2.02201   0.01216   0.00000   0.02825   0.02825   2.05026
   R15        2.56096  -0.01317   0.00000  -0.02164  -0.02164   2.53932
   R16        2.02201   0.01156   0.00000   0.02687   0.02687   2.04888
   R17        2.02201   0.01151   0.00000   0.02675   0.02675   2.04876
    A1        2.09241  -0.00571   0.00000  -0.02803  -0.02803   2.06439
    A2        2.09836   0.00196   0.00000   0.00960   0.00960   2.10796
    A3        2.09241   0.00375   0.00000   0.01843   0.01843   2.11084
    A4        2.09836  -0.00078   0.00000   0.00332   0.00332   2.10167
    A5        2.09241   0.01218   0.00000   0.04551   0.04551   2.13793
    A6        2.09241  -0.01140   0.00000  -0.04883  -0.04883   2.04359
    A7        2.09241  -0.01090   0.00000  -0.04711  -0.04711   2.04531
    A8        2.09836   0.01096   0.00000   0.04093   0.04093   2.13929
    A9        2.09241  -0.00005   0.00000   0.00618   0.00618   2.09859
   A10        2.09836  -0.00118   0.00000   0.00131   0.00131   2.09966
   A11        2.09241   0.01211   0.00000   0.04523   0.04523   2.13764
   A12        2.09241  -0.01092   0.00000  -0.04653  -0.04653   2.04588
   A13        2.09241  -0.01086   0.00000  -0.04671  -0.04671   2.04570
   A14        2.09836   0.01129   0.00000   0.04217   0.04217   2.14053
   A15        2.09241  -0.00043   0.00000   0.00454   0.00454   2.09695
   A16        2.09836  -0.00081   0.00000   0.00295   0.00295   2.10130
   A17        2.09241   0.01177   0.00000   0.04395   0.04395   2.13636
   A18        2.09241  -0.01096   0.00000  -0.04690  -0.04690   2.04552
   A19        2.09241  -0.01135   0.00000  -0.04909  -0.04909   2.04332
   A20        2.09836   0.01127   0.00000   0.04211   0.04211   2.14046
   A21        2.09241   0.00007   0.00000   0.00698   0.00698   2.09940
   A22        2.09836   0.00206   0.00000   0.01011   0.01011   2.10847
   A23        2.09241   0.00365   0.00000   0.01792   0.01792   2.11034
   A24        2.09241  -0.00571   0.00000  -0.02804  -0.02804   2.06438
    D1        3.14159   0.00000   0.00000   0.00000   0.00000   3.14159
    D2        0.00000   0.00000   0.00000   0.00000   0.00000   0.00000
    D3        0.00000   0.00000   0.00000   0.00000   0.00000   0.00000
    D4        3.14159   0.00000   0.00000   0.00000   0.00000   3.14159
    D5        0.00000   0.00000   0.00000   0.00000   0.00000   0.00000
    D6        3.14159   0.00000   0.00000   0.00000   0.00000   3.14159
    D7        3.14159   0.00000   0.00000   0.00000   0.00000   3.14159
    D8        0.00000   0.00000   0.00000   0.00000   0.00000   0.00000
    D9        0.00000   0.00000   0.00000   0.00000   0.00000   0.00000
   D10        3.14159   0.00000   0.00000   0.00000   0.00000   3.14159
   D11        3.14159   0.00000   0.00000   0.00000   0.00000   3.14159
   D12        0.00000   0.00000   0.00000   0.00000   0.00000   0.00000
   D13        0.00000   0.00000   0.00000   0.00000   0.00000   0.00000
   D14        3.14159   0.00000   0.00000   0.00000   0.00000   3.14159
   D15        3.14159   0.00000   0.00000   0.00000   0.00000   3.14159
   D16        0.00000   0.00000   0.00000   0.00000   0.00000   0.00000
   D17        0.00000   0.00000   0.00000   0.00000   0.00000   0.00000
   D18        3.14159   0.00000   0.00000   0.00000   0.00000   3.14159
   D19        3.14159   0.00000   0.00000   0.00000   0.00000   3.14159
   D20        0.00000   0.00000   0.00000   0.00000   0.00000   0.00000
   D21        0.00000   0.00000   0.00000   0.00000   0.00000   0.00000
   D22        3.14159   0.00000   0.00000   0.00000   0.00000   3.14159
   D23        3.14159   0.00000   0.00000   0.00000   0.00000   3.14159
   D24        0.00000   0.00000   0.00000   0.00000   0.00000   0.00000
   D25        0.00000   0.00000   0.00000   0.00000   0.00000   0.00000
   D26        3.14159   0.00000   0.00000   0.00000   0.00000   3.14159
   D27        3.14159   0.00000   0.00000   0.00000   0.00000   3.14159
   D28        0.00000   0.00000   0.00000   0.00000   0.00000   0.00000
         Item               Value     Threshold  Converged?
 Maximum Force            0.046391     0.000450     NO 
 RMS     Force            0.011783     0.000300     NO 
 Maximum Displacement     0.200925     0.001800     NO 
 RMS     Displacement     0.054264     0.001200     NO 
 Predicted change in Energy=-1.667896D-02
 GradGradGradGradGradGradGradGradGradGradGradGradGradGradGradGradGradGrad

                          Input orientation:                          
 ---------------------------------------------------------------------
 Center     Atomic      Atomic             Coordinates (Angstroms)
 Number     Number       Type             X           Y           Z
 ---------------------------------------------------------------------
      1          6           0       -4.576054   -0.179212    0.000000
      2          1           0       -4.077741   -1.142051    0.000000
      3          1           0       -5.660119   -0.161861    0.000000
      4          6           0       -3.866773    0.962099    0.000000
      5          1           0       -4.371448    1.922398    0.000000
      6          6           0       -2.396934    0.978387    0.000000
      7          1           0       -1.890685    0.019107    0.000000
      8          6           0       -1.682199    2.124992    0.000000
      9          1           0       -2.187435    3.084844    0.000000
     10          6           0       -0.215043    2.138833    0.000000
     11          1           0        0.290041    1.178849    0.000000
     12          6           0        0.502997    3.283363    0.000000
     13          1           0        0.002148    4.245427    0.000000
     14          6           0        1.972838    3.291106    0.000000
     15          1           0        2.471723    2.327659    0.000000
     16          6           0        2.691620    4.426454    0.000000
     17          1           0        2.201825    5.393734    0.000000
     18          1           0        3.775440    4.399508    0.000000
 ---------------------------------------------------------------------
                    Distance matrix (angstroms):
                    1          2          3          4          5
     1  C    0.000000
     2  H    1.084147   0.000000
     3  H    1.084205   1.861369   0.000000
     4  C    1.343752   2.114700   2.116454   0.000000
     5  H    2.111546   3.078492   2.450472   1.084837   0.000000
     6  C    2.467508   2.705802   3.456666   1.469929   2.188575
     7  H    2.692682   2.476187   3.773776   2.189556   3.126772
     8  C    3.699155   4.051196   4.588414   2.474810   2.696869
     9  H    4.044695   4.630324   4.754012   2.706700   2.474104
    10  C    4.938800   5.068001   5.911180   3.836644   4.162036
    11  H    5.052050   4.946119   6.099337   4.162461   4.720417
    12  C    6.147047   6.369258   7.060707   4.948046   5.060873
    13  H    6.366896   6.757989   7.175337   5.074327   4.952253
    14  C    7.411551   7.500826   8.377650   6.286917   6.490248
    15  H    7.480345   7.411772   8.504385   6.483925   6.855160
    16  C    8.604141   8.765415   9.529124   7.417161   7.493813
    17  H    8.774814   9.063632   9.626776   7.514471   7.433578
    18  H    9.524291   9.611520  10.480261   8.379690   8.515154
                    6          7          8          9         10
     6  C    0.000000
     7  H    1.084669   0.000000
     8  C    1.351129   2.116180   0.000000
     9  H    2.116850   3.080066   1.084702   0.000000
    10  C    2.471292   2.702039   1.467222   2.187526   0.000000
    11  H    2.694443   2.469933   2.187446   3.125813   1.084748
    12  C    3.704392   4.047850   2.473238   2.697747   1.351123
    13  H    4.053289   4.630832   2.708001   2.478150   2.117761
    14  C    4.944045   5.062884   3.836551   4.165383   2.472763
    15  H    5.052164   4.935587   4.158863   4.720284   2.693393
    16  C    6.146752   6.357848   4.942371   5.060148   3.698906
    17  H    6.375255   6.755387   5.076447   4.959494   4.054089
    18  H    7.057073   7.161905   5.912635   6.106081   4.586350
                   11         12         13         14         15
    11  H    0.000000
    12  C    2.115261   0.000000
    13  H    3.080062   1.084627   0.000000
    14  C    2.700636   1.469861   2.189600   0.000000
    15  H    2.465664   2.188436   3.126761   1.084950   0.000000
    16  C    4.039124   2.469155   2.695558   1.343750   2.110283
    17  H    4.628193   2.709184   2.481368   2.115060   3.077932
    18  H    4.745592   3.457551   3.776436   2.116112   2.447904
                   16         17         18
    16  C    0.000000
    17  H    1.084219   0.000000
    18  H    1.084155   1.861384   0.000000
 Stoichiometry    C8H10
 Framework group  CS[SG(C8H10)]
 Deg. of freedom    33
 Full point group                 CS      NOp   2
 Largest Abelian subgroup         CS      NOp   2
 Largest concise Abelian subgroup C1      NOp   1
                         Standard orientation:                         
 ---------------------------------------------------------------------
 Center     Atomic      Atomic             Coordinates (Angstroms)
 Number     Number       Type             X           Y           Z
 ---------------------------------------------------------------------
      1          6           0       -2.253135    3.663937    0.000000
      2          1           0       -3.223256    3.179954    0.000000
      3          1           0       -2.219715    4.747627    0.000000
      4          6           0       -1.122465    2.937814    0.000000
      5          1           0       -0.154790    3.428196    0.000000
      6          6           0       -1.127971    1.467895    0.000000
      7          1           0       -2.094650    0.975924    0.000000
      8          6           0        0.007913    0.736240    0.000000
      9          1           0        0.975150    1.227190    0.000000
     10          6           0        0.000000   -0.730961    0.000000
     11          1           0       -0.967366   -1.221757    0.000000
     12          6           0        1.133760   -1.465890    0.000000
     13          1           0        2.103143   -0.979359    0.000000
     14          6           0        1.119710   -2.935684    0.000000
     15          1           0        0.148973   -3.420230    0.000000
     16          6           0        2.244277   -3.671220    0.000000
     17          1           0        3.218713   -3.195818    0.000000
     18          1           0        2.201266   -4.754521    0.000000
 ---------------------------------------------------------------------
 Rotational constants (GHZ):     18.9605574      0.5703454      0.5536900
 Standard basis: 6-31G(d) (6D, 7F)
 There are   108 symmetry adapted basis functions of A'  symmetry.
 There are    32 symmetry adapted basis functions of A"  symmetry.
 Integral buffers will be    131072 words long.
 Raffenetti 2 integral format.
 Two-electron integral symmetry is turned on.
   140 basis functions,   264 primitive gaussians,   140 cartesian basis functions
    29 alpha electrons       29 beta electrons
       nuclear repulsion energy       296.9823075014 Hartrees.
 NAtoms=   18 NActive=   18 NUniq=   18 SFac= 1.00D+00 NAtFMM=   60 NAOKFM=F Big=F
 One-electron integrals computed using PRISM.
 NBasis=   140 RedAO= T  NBF=   108    32
 NBsUse=   140 1.00D-06 NBFU=   108    32
 Initial guess read from the read-write file.
 B after Tr=     0.000000    0.000000    0.000000
         Rot=    1.000000    0.000000    0.000000    0.000000 Ang=   0.00 deg.
 Initial guess orbital symmetries:
       Occupied  (A') (A') (A') (A') (A') (A') (A') (A') (A') (A')
                 (A') (A') (A') (A') (A') (A') (A') (A') (A') (A')
                 (A') (A') (A') (A') (A") (A') (A") (A") (A")
       Virtual   (A") (A") (A") (A") (A') (A') (A') (A') (A') (A')
                 (A') (A') (A') (A') (A') (A') (A') (A') (A') (A')
                 (A') (A') (A') (A") (A') (A") (A") (A') (A") (A')
                 (A') (A") (A') (A') (A") (A') (A') (A") (A") (A')
                 (A') (A') (A') (A') (A') (A') (A') (A') (A') (A')
                 (A') (A') (A') (A') (A') (A') (A') (A') (A') (A')
                 (A') (A") (A") (A") (A') (A") (A') (A") (A") (A")
                 (A") (A") (A') (A') (A') (A') (A') (A") (A') (A')
                 (A') (A") (A') (A') (A") (A') (A') (A') (A') (A')
                 (A") (A") (A") (A") (A') (A') (A') (A') (A') (A')
                 (A') (A') (A') (A') (A') (A') (A') (A') (A') (A')
                 (A')
 Harris functional with IExCor=  402 diagonalized for initial guess.
 ExpMin= 1.61D-01 ExpMax= 3.05D+03 ExpMxC= 4.57D+02 IAcc=1 IRadAn=         1 AccDes= 0.00D+00
 HarFok:  IExCor=  402 AccDes= 0.00D+00 IRadAn=         1 IDoV= 1
 ScaDFX=  1.000000  1.000000  1.000000  1.000000
 FoFCou: FMM=F IPFlag=           0 FMFlag=      100000 FMFlg1=           0
         NFxFlg=           0 DoJE=T BraDBF=F KetDBF=T FulRan=T
         Omega=  0.000000  0.000000  1.000000  0.000000  0.000000 ICntrl=     500 IOpCl=  0
         NMat0=    1 NMatS0=    1 NMatT0=    0 NMatD0=    1 NMtDS0=    0 NMtDT0=    0
         I1Cent=           4 NGrid=           0.
 Petite list used in FoFCou.
 Requested convergence on RMS density matrix=1.00D-08 within 128 cycles.
 Requested convergence on MAX density matrix=1.00D-06.
 Requested convergence on             energy=1.00D-06.
 No special actions if energy rises.
 Integral accuracy reduced to 1.0D-05 until final iterations.
 Initial convergence to 1.0D-05 achieved.  Increase integral accuracy.
 SCF Done:  E(RB3LYP) =  -310.803701176     A.U. after   15 cycles
             Convg  =    0.2478D-08             -V/T =  2.0103
 Calling FoFJK, ICntrl=      2127 FMM=F ISym2X=1 I1Cent= 0 IOpClX= 0 NMat=1 NMatS=1 NMatT=0.
 ***** Axes restored to original set *****
 -------------------------------------------------------------------
 Center     Atomic                   Forces (Hartrees/Bohr)
 Number     Number              X              Y              Z
 -------------------------------------------------------------------
      1        6          -0.001468931    0.006848479    0.000000000
      2        1          -0.000987409   -0.002673768    0.000000000
      3        1          -0.001085296   -0.002524439    0.000000000
      4        6           0.015687708   -0.010531562    0.000000000
      5        1          -0.001179509    0.002678310    0.000000000
      6        6          -0.020444793    0.009820805    0.000000000
      7        1           0.001583316   -0.002611430    0.000000000
      8        6           0.022488120   -0.009654982    0.000000000
      9        1          -0.001798626    0.002474823    0.000000000
     10        6          -0.022368984    0.009728163    0.000000000
     11        1           0.001669317   -0.002529038    0.000000000
     12        6           0.020480017   -0.009872672    0.000000000
     13        1          -0.001691423    0.002565333    0.000000000
     14        6          -0.015224360    0.010540012    0.000000000
     15        1           0.001027068   -0.002706988    0.000000000
     16        6           0.001164211   -0.006708997    0.000000000
     17        1           0.001015158    0.002629164    0.000000000
     18        1           0.001134416    0.002528785    0.000000000
 -------------------------------------------------------------------
 Cartesian Forces:  Max     0.022488120 RMS     0.007584286

 GradGradGradGradGradGradGradGradGradGradGradGradGradGradGradGradGradGrad
 Berny optimization.
 Using GEDIIS/GDIIS optimizer.
 Internal  Forces:  Max     0.012739293 RMS     0.003477132
 Search for a local minimum.
 Step number   2 out of a maximum of   79
 All quantities printed in internal units (Hartrees-Bohrs-Radians)
 Mixed Optimization -- RFO/linear search
 Update second derivatives using D2CorX and points    1    2
 DE= -1.87D-02 DEPred=-1.67D-02 R= 1.12D+00
 SS=  1.41D+00  RLast= 3.00D-01 DXNew= 5.0454D-01 9.0000D-01
 Trust test= 1.12D+00 RLast= 3.00D-01 DXMaxT set to 5.05D-01
 ITU=  1  0
 Use linear search instead of GDIIS.
     Eigenvalues ---    0.00237   0.00237   0.00237   0.01493   0.01495
     Eigenvalues ---    0.01495   0.01497   0.01497   0.01498   0.02681
     Eigenvalues ---    0.02681   0.02681   0.02681   0.02681   0.02681
     Eigenvalues ---    0.15506   0.16000   0.16000   0.16000   0.16000
     Eigenvalues ---    0.16000   0.16000   0.16000   0.16000   0.16596
     Eigenvalues ---    0.18922   0.22000   0.22000   0.22000   0.22000
     Eigenvalues ---    0.22000   0.27794   0.28519   0.28625   0.36976
     Eigenvalues ---    0.37230   0.37230   0.37230   0.37230   0.37230
     Eigenvalues ---    0.37230   0.37230   0.37230   0.37557   0.53860
     Eigenvalues ---    0.53930   0.53930   0.55319
 RFO step:  Lambda=-1.24634524D-03 EMin= 2.36824102D-03
 Quartic linear search produced a step of  0.31636.
 Iteration  1 RMS(Cart)=  0.01890454 RMS(Int)=  0.00020572
 Iteration  2 RMS(Cart)=  0.00054826 RMS(Int)=  0.00000001
 Iteration  3 RMS(Cart)=  0.00000002 RMS(Int)=  0.00000000
 ClnCor:  largest displacement from symmetrization is 7.60D-09 for atom     5.
 Variable       Old X    -DE/DX   Delta X   Delta X   Delta X     New X
                                 (Linear)    (Quad)   (Total)
    R1        2.04874   0.00192   0.00846  -0.00269   0.00577   2.05451
    R2        2.04885   0.00104   0.00849  -0.00582   0.00267   2.05152
    R3        2.53932   0.00047  -0.00684   0.00839   0.00155   2.54087
    R4        2.05004   0.00292   0.00887   0.00036   0.00923   2.05927
    R5        2.77776  -0.01090  -0.04189  -0.00077  -0.04267   2.73510
    R6        2.04973   0.00305   0.00877   0.00093   0.00970   2.05943
    R7        2.55326   0.00333  -0.00243   0.01068   0.00824   2.56151
    R8        2.04979   0.00303   0.00879   0.00083   0.00962   2.05941
    R9        2.77265  -0.01274  -0.04351  -0.00732  -0.05083   2.72182
   R10        2.04988   0.00302   0.00882   0.00076   0.00958   2.05945
   R11        2.55325   0.00334  -0.00244   0.01070   0.00827   2.56152
   R12        2.04965   0.00306   0.00874   0.00099   0.00973   2.05938
   R13        2.77763  -0.01085  -0.04193  -0.00051  -0.04244   2.73519
   R14        2.05026   0.00288   0.00894   0.00013   0.00907   2.05933
   R15        2.53932   0.00046  -0.00685   0.00838   0.00154   2.54086
   R16        2.04888   0.00189   0.00850  -0.00286   0.00564   2.05452
   R17        2.04876   0.00107   0.00846  -0.00570   0.00277   2.05152
    A1        2.06439  -0.00317  -0.00887  -0.01375  -0.02262   2.04177
    A2        2.10796   0.00114   0.00304   0.00513   0.00817   2.11613
    A3        2.11084   0.00204   0.00583   0.00862   0.01445   2.12529
    A4        2.10167  -0.00284   0.00105  -0.01876  -0.01771   2.08396
    A5        2.13793   0.00610   0.01440   0.01828   0.03268   2.17060
    A6        2.04359  -0.00326  -0.01545   0.00049  -0.01496   2.02862
    A7        2.04531  -0.00262  -0.01490   0.00450  -0.01041   2.03490
    A8        2.13929   0.00561   0.01295   0.01716   0.03011   2.16940
    A9        2.09859  -0.00299   0.00195  -0.02166  -0.01971   2.07888
   A10        2.09966  -0.00358   0.00041  -0.02374  -0.02333   2.07633
   A11        2.13764   0.00627   0.01431   0.01938   0.03369   2.17133
   A12        2.04588  -0.00268  -0.01472   0.00436  -0.01036   2.03552
   A13        2.04570  -0.00264  -0.01478   0.00446  -0.01031   2.03539
   A14        2.14053   0.00589   0.01334   0.01832   0.03167   2.17219
   A15        2.09695  -0.00325   0.00144  -0.02279  -0.02135   2.07560
   A16        2.10130  -0.00333   0.00093  -0.02263  -0.02170   2.07961
   A17        2.13636   0.00601   0.01390   0.01835   0.03225   2.16861
   A18        2.04552  -0.00268  -0.01484   0.00428  -0.01056   2.03496
   A19        2.04332  -0.00321  -0.01553   0.00067  -0.01486   2.02846
   A20        2.14046   0.00573   0.01332   0.01742   0.03075   2.17121
   A21        2.09940  -0.00252   0.00221  -0.01809  -0.01588   2.08351
   A22        2.10847   0.00111   0.00320   0.00469   0.00789   2.11636
   A23        2.11034   0.00206   0.00567   0.00907   0.01474   2.12508
   A24        2.06438  -0.00318  -0.00887  -0.01376  -0.02263   2.04175
    D1        3.14159   0.00000   0.00000   0.00000   0.00000   3.14159
    D2        0.00000   0.00000   0.00000   0.00000   0.00000   0.00000
    D3        0.00000   0.00000   0.00000   0.00000   0.00000   0.00000
    D4        3.14159   0.00000   0.00000   0.00000   0.00000   3.14159
    D5        0.00000   0.00000   0.00000   0.00000   0.00000   0.00000
    D6        3.14159   0.00000   0.00000   0.00000   0.00000   3.14159
    D7        3.14159   0.00000   0.00000   0.00000   0.00000   3.14159
    D8        0.00000   0.00000   0.00000   0.00000   0.00000   0.00000
    D9        0.00000   0.00000   0.00000   0.00000   0.00000   0.00000
   D10        3.14159   0.00000   0.00000   0.00000   0.00000   3.14159
   D11        3.14159   0.00000   0.00000   0.00000   0.00000   3.14159
   D12        0.00000   0.00000   0.00000   0.00000   0.00000   0.00000
   D13        0.00000   0.00000   0.00000   0.00000   0.00000   0.00000
   D14        3.14159   0.00000   0.00000   0.00000   0.00000   3.14159
   D15        3.14159   0.00000   0.00000   0.00000   0.00000   3.14159
   D16        0.00000   0.00000   0.00000   0.00000   0.00000   0.00000
   D17        0.00000   0.00000   0.00000   0.00000   0.00000   0.00000
   D18        3.14159   0.00000   0.00000   0.00000   0.00000   3.14159
   D19        3.14159   0.00000   0.00000   0.00000   0.00000   3.14159
   D20        0.00000   0.00000   0.00000   0.00000   0.00000   0.00000
   D21        0.00000   0.00000   0.00000   0.00000   0.00000   0.00000
   D22        3.14159   0.00000   0.00000   0.00000   0.00000   3.14159
   D23        3.14159   0.00000   0.00000   0.00000   0.00000   3.14159
   D24        0.00000   0.00000   0.00000   0.00000   0.00000   0.00000
   D25        0.00000   0.00000   0.00000   0.00000   0.00000   0.00000
   D26        3.14159   0.00000   0.00000   0.00000   0.00000   3.14159
   D27        3.14159   0.00000   0.00000   0.00000   0.00000   3.14159
   D28        0.00000   0.00000   0.00000   0.00000   0.00000   0.00000
         Item               Value     Threshold  Converged?
 Maximum Force            0.012739     0.000450     NO 
 RMS     Force            0.003477     0.000300     NO 
 Maximum Displacement     0.076756     0.001800     NO 
 RMS     Displacement     0.018600     0.001200     NO 
 Predicted change in Energy=-2.098319D-03
 GradGradGradGradGradGradGradGradGradGradGradGradGradGradGradGradGradGrad

                          Input orientation:                          
 ---------------------------------------------------------------------
 Center     Atomic      Atomic             Coordinates (Angstroms)
 Number     Number       Type             X           Y           Z
 ---------------------------------------------------------------------
      1          6           0       -4.588258   -0.180385    0.000000
      2          1           0       -4.118358   -1.160792    0.000000
      3          1           0       -5.673562   -0.154304    0.000000
      4          6           0       -3.853060    0.945385    0.000000
      5          1           0       -4.355411    1.912409    0.000000
      6          6           0       -2.406037    0.976189    0.000000
      7          1           0       -1.897588    0.012265    0.000000
      8          6           0       -1.666237    2.111992    0.000000
      9          1           0       -2.177138    3.074610    0.000000
     10          6           0       -0.226301    2.145425    0.000000
     11          1           0        0.284484    1.182723    0.000000
     12          6           0        0.514484    3.280595    0.000000
     13          1           0        0.007577    4.245302    0.000000
     14          6           0        1.961607    3.309011    0.000000
     15          1           0        2.462219    2.341055    0.000000
     16          6           0        2.699335    4.433114    0.000000
     17          1           0        2.231872    5.414691    0.000000
     18          1           0        3.784572    4.404353    0.000000
 ---------------------------------------------------------------------
                    Distance matrix (angstroms):
                    1          2          3          4          5
     1  C    0.000000
     2  H    1.087199   0.000000
     3  H    1.085617   1.852478   0.000000
     4  C    1.344572   2.122820   2.126862   0.000000
     5  H    2.105708   3.082330   2.451291   1.089721   0.000000
     6  C    2.469767   2.738381   3.457562   1.447351   2.162538
     7  H    2.697558   2.511550   3.779646   2.166699   3.106677
     8  C    3.713920   4.089501   4.603776   2.478542   2.696571
     9  H    4.050739   4.659073   4.759292   2.709670   2.468923
    10  C    4.943285   5.106778   5.912817   3.820142   4.135680
    11  H    5.059810   4.987693   6.106223   4.144346   4.696922
    12  C    6.165741   6.417877   7.077460   4.952641   5.058440
    13  H    6.380314   6.800676   7.185532   5.078777   4.947530
    14  C    7.421362   7.546199   8.383934   6.276709   6.469560
    15  H    7.487782   7.454323   8.509862   6.467662   6.831092
    16  C    8.625159   8.818884   9.547240   7.422811   7.491554
    17  H    8.821511   9.141247   9.670036   7.549907   7.460447
    18  H    9.545895   9.665772  10.499412   8.384384   8.512879
                    6          7          8          9         10
     6  C    0.000000
     7  H    1.089802   0.000000
     8  C    1.355491   2.112434   0.000000
     9  H    2.110868   3.075077   1.089795   0.000000
    10  C    2.473533   2.709903   1.440324   2.160822   0.000000
    11  H    2.698437   2.476168   2.160753   3.104645   1.089815
    12  C    3.720179   4.062028   2.474101   2.699493   1.355497
    13  H    4.063574   4.642010   2.711579   2.478609   2.112861
    14  C    4.951603   5.075620   3.820223   4.145378   2.478078
    15  H    5.055965   4.942791   4.134806   4.696993   2.695628
    16  C    6.165643   6.377742   4.944271   5.062166   3.713874
    17  H    6.419541   6.799900   5.109116   4.991528   4.090319
    18  H    7.076436   7.181739   5.913225   6.108209   4.603244
                   11         12         13         14         15
    11  H    0.000000
    12  C    2.110442   0.000000
    13  H    3.075072   1.089777   0.000000
    14  C    2.708107   1.447401   2.166765   0.000000
    15  H    2.466630   2.162500   3.106674   1.089749   0.000000
    16  C    4.049264   2.470196   2.698302   1.344563   2.105453
    17  H    4.658527   2.739304   2.512958   2.122953   3.082256
    18  H    4.757049   3.457789   3.780343   2.126729   2.450677
                   16         17         18
    16  C    0.000000
    17  H    1.087205   0.000000
    18  H    1.085619   1.852475   0.000000
 Stoichiometry    C8H10
 Framework group  CS[SG(C8H10)]
 Deg. of freedom    33
 Full point group                 CS      NOp   2
 Largest Abelian subgroup         CS      NOp   2
 Largest concise Abelian subgroup C1      NOp   1
                         Standard orientation:                         
 ---------------------------------------------------------------------
 Center     Atomic      Atomic             Coordinates (Angstroms)
 Number     Number       Type             X           Y           Z
 ---------------------------------------------------------------------
      1          6           0       -2.216961    3.698869    0.000000
      2          1           0       -3.208715    3.253418    0.000000
      3          1           0       -2.163983    4.783193    0.000000
      4          6           0       -1.109762    2.935989    0.000000
      5          1           0       -0.130582    3.414213    0.000000
      6          6           0       -1.114841    1.488647    0.000000
      7          1           0       -2.091072    1.004250    0.000000
      8          6           0        0.002274    0.720917    0.000000
      9          1           0        0.977261    1.207798    0.000000
     10          6           0        0.000000   -0.719405    0.000000
     11          1           0       -0.975069   -1.206168    0.000000
     12          6           0        1.116456   -1.488104    0.000000
     13          1           0        2.093433   -1.005268    0.000000
     14          6           0        1.108989   -2.935486    0.000000
     15          1           0        0.128920   -3.411949    0.000000
     16          6           0        2.214458   -3.700854    0.000000
     17          1           0        3.207322   -3.257869    0.000000
     18          1           0        2.158802   -4.785045    0.000000
 ---------------------------------------------------------------------
 Rotational constants (GHZ):     19.6358517      0.5682379      0.5522563
 Standard basis: 6-31G(d) (6D, 7F)
 There are   108 symmetry adapted basis functions of A'  symmetry.
 There are    32 symmetry adapted basis functions of A"  symmetry.
 Integral buffers will be    131072 words long.
 Raffenetti 2 integral format.
 Two-electron integral symmetry is turned on.
   140 basis functions,   264 primitive gaussians,   140 cartesian basis functions
    29 alpha electrons       29 beta electrons
       nuclear repulsion energy       297.3113695961 Hartrees.
 NAtoms=   18 NActive=   18 NUniq=   18 SFac= 1.00D+00 NAtFMM=   60 NAOKFM=F Big=F
 One-electron integrals computed using PRISM.
 NBasis=   140 RedAO= T  NBF=   108    32
 NBsUse=   140 1.00D-06 NBFU=   108    32
 Initial guess read from the read-write file.
 B after Tr=     0.000000    0.000000    0.000000
         Rot=    1.000000    0.000000    0.000000    0.000000 Ang=   0.00 deg.
 Initial guess orbital symmetries:
       Occupied  (A') (A') (A') (A') (A') (A') (A') (A') (A') (A')
                 (A') (A') (A') (A') (A') (A') (A') (A') (A') (A')
                 (A') (A') (A') (A') (A") (A') (A") (A") (A")
       Virtual   (A") (A") (A") (A') (A") (A') (A') (A') (A') (A')
                 (A') (A') (A') (A') (A') (A') (A') (A') (A') (A')
                 (A') (A') (A') (A") (A") (A') (A") (A") (A') (A')
                 (A') (A") (A') (A') (A") (A') (A') (A") (A") (A')
                 (A') (A') (A') (A') (A') (A') (A') (A') (A') (A')
                 (A') (A') (A') (A') (A') (A') (A') (A') (A') (A')
                 (A') (A") (A") (A") (A') (A") (A") (A') (A") (A")
                 (A") (A") (A') (A') (A') (A') (A') (A") (A') (A')
                 (A') (A") (A') (A') (A") (A') (A') (A') (A') (A')
                 (A") (A") (A') (A") (A") (A') (A') (A') (A') (A')
                 (A') (A') (A') (A') (A') (A') (A') (A') (A') (A')
                 (A')
 Harris functional with IExCor=  402 diagonalized for initial guess.
 ExpMin= 1.61D-01 ExpMax= 3.05D+03 ExpMxC= 4.57D+02 IAcc=1 IRadAn=         1 AccDes= 0.00D+00
 HarFok:  IExCor=  402 AccDes= 0.00D+00 IRadAn=         1 IDoV= 1
 ScaDFX=  1.000000  1.000000  1.000000  1.000000
 FoFCou: FMM=F IPFlag=           0 FMFlag=      100000 FMFlg1=           0
         NFxFlg=           0 DoJE=T BraDBF=F KetDBF=T FulRan=T
         Omega=  0.000000  0.000000  1.000000  0.000000  0.000000 ICntrl=     500 IOpCl=  0
         NMat0=    1 NMatS0=    1 NMatT0=    0 NMatD0=    1 NMtDS0=    0 NMtDT0=    0
         I1Cent=           4 NGrid=           0.
 Petite list used in FoFCou.
 Requested convergence on RMS density matrix=1.00D-08 within 128 cycles.
 Requested convergence on MAX density matrix=1.00D-06.
 Requested convergence on             energy=1.00D-06.
 No special actions if energy rises.
 Integral accuracy reduced to 1.0D-05 until final iterations.
 Initial convergence to 1.0D-05 achieved.  Increase integral accuracy.
 SCF Done:  E(RB3LYP) =  -310.805633960     A.U. after   11 cycles
             Convg  =    0.7775D-08             -V/T =  2.0101
 Calling FoFJK, ICntrl=      2127 FMM=F ISym2X=1 I1Cent= 0 IOpClX= 0 NMat=1 NMatS=1 NMatT=0.
 ***** Axes restored to original set *****
 -------------------------------------------------------------------
 Center     Atomic                   Forces (Hartrees/Bohr)
 Number     Number              X              Y              Z
 -------------------------------------------------------------------
      1        6           0.000316139    0.001219728    0.000000000
      2        1          -0.000350631   -0.000511882    0.000000000
      3        1           0.000107252   -0.000249020    0.000000000
      4        6           0.000056205   -0.000607853    0.000000000
      5        1          -0.000674219    0.000288413    0.000000000
      6        6          -0.000653881    0.000391346    0.000000000
      7        1           0.000705863   -0.000420380    0.000000000
      8        6           0.000563382   -0.000340997    0.000000000
      9        1          -0.000864682    0.000458098    0.000000000
     10        6          -0.000518091    0.000357951    0.000000000
     11        1           0.000831819   -0.000468281    0.000000000
     12        6           0.000702440   -0.000395576    0.000000000
     13        1          -0.000739702    0.000414589    0.000000000
     14        6          -0.000022474    0.000584683    0.000000000
     15        1           0.000649318   -0.000289144    0.000000000
     16        6          -0.000344826   -0.001194828    0.000000000
     17        1           0.000343028    0.000505218    0.000000000
     18        1          -0.000106940    0.000257934    0.000000000
 -------------------------------------------------------------------
 Cartesian Forces:  Max     0.001219728 RMS     0.000453895

 GradGradGradGradGradGradGradGradGradGradGradGradGradGradGradGradGradGrad
 Berny optimization.
 Using GEDIIS/GDIIS optimizer.
 Internal  Forces:  Max     0.000809999 RMS     0.000367713
 Search for a local minimum.
 Step number   3 out of a maximum of   79
 All quantities printed in internal units (Hartrees-Bohrs-Radians)
 Mixed Optimization -- En-DIIS/RFO-DIIS
 Update second derivatives using D2CorX and points    1    2    3
 DE= -1.93D-03 DEPred=-2.10D-03 R= 9.21D-01
 SS=  1.41D+00  RLast= 1.34D-01 DXNew= 8.4853D-01 4.0190D-01
 Trust test= 9.21D-01 RLast= 1.34D-01 DXMaxT set to 5.05D-01
 ITU=  1  1  0
 Use linear search instead of GDIIS.
     Eigenvalues ---    0.00237   0.00237   0.00237   0.01485   0.01485
     Eigenvalues ---    0.01488   0.01488   0.01495   0.01495   0.02681
     Eigenvalues ---    0.02681   0.02681   0.02681   0.02681   0.02681
     Eigenvalues ---    0.14954   0.16000   0.16000   0.16000   0.16000
     Eigenvalues ---    0.16000   0.16000   0.16000   0.16024   0.16404
     Eigenvalues ---    0.20558   0.22000   0.22000   0.22000   0.22000
     Eigenvalues ---    0.22032   0.28519   0.28522   0.30663   0.36641
     Eigenvalues ---    0.37230   0.37230   0.37230   0.37230   0.37230
     Eigenvalues ---    0.37230   0.37230   0.37232   0.37703   0.53802
     Eigenvalues ---    0.53930   0.53930   0.55235
 RFO step:  Lambda=-3.98829161D-05 EMin= 2.36824102D-03
 Quartic linear search produced a step of  0.01658.
 Iteration  1 RMS(Cart)=  0.00384908 RMS(Int)=  0.00000639
 Iteration  2 RMS(Cart)=  0.00000684 RMS(Int)=  0.00000000
 Iteration  3 RMS(Cart)=  0.00000000 RMS(Int)=  0.00000000
 ClnCor:  largest displacement from symmetrization is 2.62D-13 for atom     3.
 Variable       Old X    -DE/DX   Delta X   Delta X   Delta X     New X
                                 (Linear)    (Quad)   (Total)
    R1        2.05451   0.00031   0.00010   0.00094   0.00103   2.05554
    R2        2.05152  -0.00011   0.00004  -0.00017  -0.00013   2.05139
    R3        2.54087  -0.00042   0.00003  -0.00094  -0.00092   2.53996
    R4        2.05927   0.00057   0.00015   0.00160   0.00176   2.06103
    R5        2.73510   0.00054  -0.00071   0.00160   0.00089   2.73599
    R6        2.05943   0.00070   0.00016   0.00196   0.00212   2.06155
    R7        2.56151   0.00018   0.00014   0.00019   0.00033   2.56183
    R8        2.05941   0.00081   0.00016   0.00226   0.00242   2.06183
    R9        2.72182   0.00079  -0.00084   0.00253   0.00169   2.72351
   R10        2.05945   0.00080   0.00016   0.00224   0.00240   2.06185
   R11        2.56152   0.00016   0.00014   0.00017   0.00031   2.56182
   R12        2.05938   0.00071   0.00016   0.00199   0.00215   2.06153
   R13        2.73519   0.00052  -0.00070   0.00150   0.00080   2.73599
   R14        2.05933   0.00056   0.00015   0.00157   0.00172   2.06105
   R15        2.54086  -0.00042   0.00003  -0.00094  -0.00091   2.53994
   R16        2.05452   0.00031   0.00009   0.00094   0.00103   2.05555
   R17        2.05152  -0.00011   0.00005  -0.00018  -0.00013   2.05139
    A1        2.04177  -0.00054  -0.00038  -0.00329  -0.00366   2.03810
    A2        2.11613   0.00057   0.00014   0.00354   0.00368   2.11980
    A3        2.12529  -0.00003   0.00024  -0.00025  -0.00001   2.12528
    A4        2.08396  -0.00068  -0.00029  -0.00371  -0.00401   2.07995
    A5        2.17060   0.00040   0.00054   0.00174   0.00228   2.17289
    A6        2.02862   0.00028  -0.00025   0.00198   0.00173   2.03035
    A7        2.03490   0.00047  -0.00017   0.00275   0.00258   2.03748
    A8        2.16940  -0.00006   0.00050  -0.00039   0.00011   2.16951
    A9        2.07888  -0.00041  -0.00033  -0.00237  -0.00270   2.07619
   A10        2.07633  -0.00067  -0.00039  -0.00374  -0.00413   2.07220
   A11        2.17133   0.00020   0.00056   0.00080   0.00136   2.17269
   A12        2.03552   0.00047  -0.00017   0.00294   0.00277   2.03829
   A13        2.03539   0.00049  -0.00017   0.00298   0.00281   2.03820
   A14        2.17219   0.00009   0.00053   0.00028   0.00081   2.17300
   A15        2.07560  -0.00057  -0.00035  -0.00326  -0.00362   2.07198
   A16        2.07961  -0.00050  -0.00036  -0.00282  -0.00318   2.07643
   A17        2.16861   0.00004   0.00053   0.00008   0.00062   2.16923
   A18        2.03496   0.00046  -0.00018   0.00274   0.00257   2.03753
   A19        2.02846   0.00030  -0.00025   0.00203   0.00178   2.03025
   A20        2.17121   0.00032   0.00051   0.00135   0.00186   2.17306
   A21        2.08351  -0.00061  -0.00026  -0.00338  -0.00364   2.07987
   A22        2.11636   0.00055   0.00013   0.00342   0.00355   2.11991
   A23        2.12508  -0.00001   0.00024  -0.00014   0.00010   2.12518
   A24        2.04175  -0.00054  -0.00038  -0.00328  -0.00366   2.03809
    D1        3.14159   0.00000   0.00000   0.00000   0.00000   3.14159
    D2        0.00000   0.00000   0.00000   0.00000   0.00000   0.00000
    D3        0.00000   0.00000   0.00000   0.00000   0.00000   0.00000
    D4        3.14159   0.00000   0.00000   0.00000   0.00000   3.14159
    D5        0.00000   0.00000   0.00000   0.00000   0.00000   0.00000
    D6        3.14159   0.00000   0.00000   0.00000   0.00000   3.14159
    D7        3.14159   0.00000   0.00000   0.00000   0.00000   3.14159
    D8        0.00000   0.00000   0.00000   0.00000   0.00000   0.00000
    D9        0.00000   0.00000   0.00000   0.00000   0.00000   0.00000
   D10        3.14159   0.00000   0.00000   0.00000   0.00000   3.14159
   D11        3.14159   0.00000   0.00000   0.00000   0.00000   3.14159
   D12        0.00000   0.00000   0.00000   0.00000   0.00000   0.00000
   D13        0.00000   0.00000   0.00000   0.00000   0.00000   0.00000
   D14        3.14159   0.00000   0.00000   0.00000   0.00000   3.14159
   D15        3.14159   0.00000   0.00000   0.00000   0.00000   3.14159
   D16        0.00000   0.00000   0.00000   0.00000   0.00000   0.00000
   D17        0.00000   0.00000   0.00000   0.00000   0.00000   0.00000
   D18        3.14159   0.00000   0.00000   0.00000   0.00000   3.14159
   D19        3.14159   0.00000   0.00000   0.00000   0.00000   3.14159
   D20        0.00000   0.00000   0.00000   0.00000   0.00000   0.00000
   D21        0.00000   0.00000   0.00000   0.00000   0.00000   0.00000
   D22        3.14159   0.00000   0.00000   0.00000   0.00000   3.14159
   D23        3.14159   0.00000   0.00000   0.00000   0.00000   3.14159
   D24        0.00000   0.00000   0.00000   0.00000   0.00000   0.00000
   D25        0.00000   0.00000   0.00000   0.00000   0.00000   0.00000
   D26        3.14159   0.00000   0.00000   0.00000   0.00000   3.14159
   D27        3.14159   0.00000   0.00000   0.00000   0.00000   3.14159
   D28        0.00000   0.00000   0.00000   0.00000   0.00000   0.00000
         Item               Value     Threshold  Converged?
 Maximum Force            0.000810     0.000450     NO 
 RMS     Force            0.000368     0.000300     NO 
 Maximum Displacement     0.015957     0.001800     NO 
 RMS     Displacement     0.003851     0.001200     NO 
 Predicted change in Energy=-2.052076D-05
 GradGradGradGradGradGradGradGradGradGradGradGradGradGradGradGradGradGrad

                          Input orientation:                          
 ---------------------------------------------------------------------
 Center     Atomic      Atomic             Coordinates (Angstroms)
 Number     Number       Type             X           Y           Z
 ---------------------------------------------------------------------
      1          6           0       -4.591075   -0.180064    0.000000
      2          1           0       -4.126802   -1.163752    0.000000
      3          1           0       -5.676248   -0.151483    0.000000
      4          6           0       -3.853566    0.943614    0.000000
      5          1           0       -4.358006    1.910597    0.000000
      6          6           0       -2.406071    0.974411    0.000000
      7          1           0       -1.894619    0.010808    0.000000
      8          6           0       -1.666035    2.110269    0.000000
      9          1           0       -2.181392    3.071958    0.000000
     10          6           0       -0.225247    2.145505    0.000000
     11          1           0        0.290032    1.183760    0.000000
     12          6           0        0.515137    3.281129    0.000000
     13          1           0        0.004216    4.245003    0.000000
     14          6           0        1.962650    3.311068    0.000000
     15          1           0        2.466422    2.343724    0.000000
     16          6           0        2.701023    4.434171    0.000000
     17          1           0        2.237612    5.418270    0.000000
     18          1           0        3.786171    4.404647    0.000000
 ---------------------------------------------------------------------
                    Distance matrix (angstroms):
                    1          2          3          4          5
     1  C    0.000000
     2  H    1.087746   0.000000
     3  H    1.085549   1.850803   0.000000
     4  C    1.344087   2.125006   2.126359   0.000000
     5  H    2.103612   3.083031   2.447435   1.090650   0.000000
     6  C    2.471246   2.744569   3.458568   1.447823   2.164831
     7  H    2.703203   2.522347   3.785110   2.169701   3.110864
     8  C    3.715035   4.095679   4.604056   2.479189   2.699366
     9  H    4.047495   4.661101   4.754428   2.706661   2.467064
    10  C    4.946588   5.115986   5.915198   3.822204   4.139430
    11  H    5.068059   5.001923   6.113867   4.150551   4.704524
    12  C    6.168732   6.426863   7.079271   4.954750   5.062201
    13  H    6.379492   6.805876   7.183089   5.077564   4.947568
    14  C    7.425586   7.556815   8.387015   6.279587   6.473949
    15  H    7.495184   7.468132   8.516404   6.473219   6.838159
    16  C    8.629360   8.829266   9.550230   7.426078   7.496553
    17  H    8.830194   9.155807   9.677362   7.558109   7.470338
    18  H    9.549755   9.675857  10.502176   8.387153   8.517506
                    6          7          8          9         10
     6  C    0.000000
     7  H    1.090924   0.000000
     8  C    1.355664   2.111868   0.000000
     9  H    2.109546   3.074554   1.091073   0.000000
    10  C    2.475370   2.709933   1.441219   2.164445   0.000000
[...]
 ! R10   R(10,11)                1.0911         -DE/DX =    0.0                 !
 ! R11   R(10,12)                1.3557         -DE/DX =    0.0001              !
 ! R12   R(12,13)                1.0909         -DE/DX =    0.0                 !
 ! R13   R(12,14)                1.4478         -DE/DX =    0.0                 !
 ! R14   R(14,15)                1.0906         -DE/DX =    0.0                 !
 ! R15   R(14,16)                1.3441         -DE/DX =    0.0                 !
 ! R16   R(16,17)                1.0877         -DE/DX =    0.0                 !
 ! R17   R(16,18)                1.0855         -DE/DX =    0.0                 !
 ! A1    A(2,1,3)              116.7046         -DE/DX =    0.0                 !
 ! A2    A(2,1,4)              121.5396         -DE/DX =    0.0                 !
 ! A3    A(3,1,4)              121.7558         -DE/DX =    0.0                 !
 ! A4    A(1,4,5)              119.1178         -DE/DX =    0.0                 !
 ! A5    A(1,4,6)              124.5303         -DE/DX =    0.0                 !
 ! A6    A(5,4,6)              116.352          -DE/DX =    0.0                 !
 ! A7    A(4,6,7)              116.7802         -DE/DX =    0.0                 !
 ! A8    A(4,6,8)              124.267          -DE/DX =    0.0                 !
 ! A9    A(7,6,8)              118.9528         -DE/DX =    0.0                 !
 ! A10   A(6,8,9)              118.703          -DE/DX =    0.0                 !
 ! A11   A(6,8,10)             124.4815         -DE/DX =    0.0                 !
 ! A12   A(9,8,10)             116.8155         -DE/DX =    0.0                 !
 ! A13   A(8,10,11)            116.8132         -DE/DX =    0.0                 !
 ! A14   A(8,10,12)            124.4863         -DE/DX =    0.0                 !
 ! A15   A(11,10,12)           118.7006         -DE/DX =    0.0                 !
 ! A16   A(10,12,13)           118.9554         -DE/DX =    0.0                 !
 ! A17   A(10,12,14)           124.2632         -DE/DX =    0.0                 !
 ! A18   A(13,12,14)           116.7814         -DE/DX =    0.0                 !
 ! A19   A(12,14,15)           116.3498         -DE/DX =    0.0                 !
 ! A20   A(12,14,16)           124.5328         -DE/DX =    0.0                 !
 ! A21   A(15,14,16)           119.1173         -DE/DX =    0.0                 !
 ! A22   A(14,16,17)           121.5408         -DE/DX =    0.0                 !
 ! A23   A(14,16,18)           121.7548         -DE/DX =    0.0                 !
 ! A24   A(17,16,18)           116.7044         -DE/DX =    0.0                 !
 ! D1    D(2,1,4,5)            180.0            -DE/DX =    0.0                 !
 ! D2    D(2,1,4,6)              0.0            -DE/DX =    0.0                 !
 ! D3    D(3,1,4,5)              0.0            -DE/DX =    0.0                 !
 ! D4    D(3,1,4,6)            180.0            -DE/DX =    0.0                 !
 ! D5    D(1,4,6,7)              0.0            -DE/DX =    0.0                 !
 ! D6    D(1,4,6,8)            180.0            -DE/DX =    0.0                 !
 ! D7    D(5,4,6,7)            180.0            -DE/DX =    0.0                 !
 ! D8    D(5,4,6,8)              0.0            -DE/DX =    0.0                 !
 ! D9    D(4,6,8,9)              0.0            -DE/DX =    0.0                 !
 ! D10   D(4,6,8,10)           180.0            -DE/DX =    0.0                 !
 ! D11   D(7,6,8,9)            180.0            -DE/DX =    0.0                 !
 ! D12   D(7,6,8,10)             0.0            -DE/DX =    0.0                 !
 ! D13   D(6,8,10,11)            0.0            -DE/DX =    0.0                 !
 ! D14   D(6,8,10,12)          180.0            -DE/DX =    0.0                 !
 ! D15   D(9,8,10,11)          180.0            -DE/DX =    0.0                 !
 ! D16   D(9,8,10,12)            0.0            -DE/DX =    0.0                 !
 ! D17   D(8,10,12,13)           0.0            -DE/DX =    0.0                 !
 ! D18   D(8,10,12,14)         180.0            -DE/DX =    0.0                 !
 ! D19   D(11,10,12,13)        180.0            -DE/DX =    0.0                 !
 ! D20   D(11,10,12,14)          0.0            -DE/DX =    0.0                 !
 ! D21   D(10,12,14,15)          0.0            -DE/DX =    0.0                 !
 ! D22   D(10,12,14,16)        180.0            -DE/DX =    0.0                 !
 ! D23   D(13,12,14,15)        180.0            -DE/DX =    0.0                 !
 ! D24   D(13,12,14,16)          0.0            -DE/DX =    0.0                 !
 ! D25   D(12,14,16,17)          0.0            -DE/DX =    0.0                 !
 ! D26   D(12,14,16,18)        180.0            -DE/DX =    0.0                 !
 ! D27   D(15,14,16,17)        180.0            -DE/DX =    0.0                 !
 ! D28   D(15,14,16,18)          0.0            -DE/DX =    0.0                 !
 --------------------------------------------------------------------------------
 GradGradGradGradGradGradGradGradGradGradGradGradGradGradGradGradGradGrad

 1\1\GINC-NISER-THINKCENTRE-M93P\Freq\RB3LYP\6-31G(d)\C8H10\STUDENT\02-
 Mar-2021\0\\#N Geom=AllCheck Guess=TCheck SCRF=Check GenChk RB3LYP/6-3
 1G(d) Freq\\Title Card Required\\0,1\C,-4.5912722007,-0.1796497026,0.\
 H,-4.1293387334,-1.1644254147,0.\H,-5.676390899,-0.1498225336,0.\C,-3.
 8527546732,0.9433392398,0.\H,-4.3572351646,1.9102978286,0.\C,-2.405306
 6411,0.9736572261,0.\H,-1.8934878882,0.0102593081,0.\C,-1.6656199792,2
 .1097597035,0.\H,-2.1817218284,3.071079497,0.\C,-0.2251908108,2.145326
 2863,0.\H,0.2908738861,1.1839827223,0.\C,0.5145891246,3.281367391,0.\H
 ,0.0028947283,4.244828301,0.\C,1.9620524418,3.3114685311,0.\H,2.466352
 4876,2.3444138818,0.\C,2.7007879937,4.4343123754,0.\H,2.2390679722,5.4
 191877836,0.\H,3.7859016943,4.4042538553,0.\\Version=EM64L-G09RevC.01\
 State=1-A'\HF=-310.8056575\RMSD=2.636e-09\RMSF=3.638e-05\ZeroPoint=0.1
 527986\Thermal=0.1616658\Dipole=-0.0000833,-0.000032,0.\DipoleDeriv=-0
 .2131505,-0.2583139,0.,-0.0944275,0.0345777,0.,0.,0.,-0.3136217,0.0027
 693,0.0897009,0.,0.0422402,-0.0657478,0.,0.,0.,0.1388629,-0.1141455,-0
 .023236,0.,0.0015975,0.0280121,0.,0.,0.,0.13659,0.3515726,0.1684307,0.
 ,-0.1953857,-0.0049253,0.,0.,0.,-0.0738151,-0.0297156,0.0147524,0.,0.1
 136594,-0.0741789,0.,0.,0.,0.1082441,-0.0537482,-0.0996041,0.,0.049427
 6,0.1517611,0.,0.,0.,-0.1083195,-0.0344259,0.0507195,0.,0.0780862,-0.0
 720132,0.,0.,0.,0.1123655,0.1309655,0.0169189,0.,-0.0911872,0.0658806,
 0.,0.,0.,-0.1118319,-0.0401485,0.0406283,0.,0.0959642,-0.0633517,0.,0.
 ,0.,0.1115343,0.1309956,0.0169806,0.,-0.0911095,0.0658906,0.,0.,0.,-0.
 1118299,-0.0401433,0.0406244,0.,0.0959651,-0.0633669,0.,0.,0.,0.111526
 2,-0.0537637,-0.0996388,0.,0.0493757,0.15176,0.,0.,0.,-0.1083257,-0.03
 44088,0.0507111,0.,0.0780808,-0.0720224,0.,0.,0.,0.1123722,0.3515769,0
 .1684349,0.,-0.1953993,-0.0049445,0.,0.,0.,-0.0738153,-0.0296884,0.014
 7355,0.,0.1136506,-0.0742042,0.,0.,0.,0.1082394,-0.2131851,-0.2583139,
 0.,-0.0943917,0.0346457,0.,0.,0.,-0.3136299,0.0027971,0.0896839,0.,0.0
 422252,-0.0657787,0.,0.,0.,0.1388654,-0.1141536,-0.0232144,0.,0.001628
 6,0.0280059,0.,0.,0.,0.136589\Polar=202.6146817,92.2175982,138.5883273
 ,0.,0.,29.198355\PG=CS [SG(C8H10)]\NImag=0\\0.71421262,0.08712498,0.77
 057390,0.,0.,0.10126699,-0.11387019,0.11169485,0.,0.11025292,0.1080796
 1,-0.28452329,0.,-0.11796676,0.30489669,0.,0.,-0.03324576,0.,0.,0.0218
 8772,-0.34555359,0.01082325,0.,-0.00817928,-0.00144848,0.,0.36525990,0
 .01539481,-0.05937578,0.,0.02619502,0.00231829,0.,-0.00972261,0.054866
 58,0.,0.,-0.03127267,0.,0.,0.00221559,0.,0.,0.02134841,-0.22898984,-0.
 17387161,0.,0.01184619,0.01394322,0.,-0.01306836,-0.02940453,0.,0.6538
 4317,-0.18895929,-0.40948480,0.,-0.01618896,-0.02224567,0.,0.00357536,
 0.00473491,0.,0.08032316,0.80082216,0.,0.,-0.04911997,0.,0.,0.00460644
 ,0.,0.,0.00411774,0.,0.,0.13189511,0.01129057,-0.01779597,0.,-0.001261
 90,-0.00333140,0.,0.00109681,0.00010208,0.,-0.11750833,0.11167331,0.,0
 .12339078,0.01413201,-0.02259513,0.,-0.00304107,-0.00266134,0.,-0.0002
 7117,0.00128677,0.,0.11051683,-0.26759549,0.,-0.11924675,0.28825723,0.
 ,0.,0.00513492,0.,0.,0.01113365,0.,0.,-0.00699512,0.,0.,-0.04163709,0.
 ,0.,0.02724975,-0.03674886,-0.02717662,0.,0.00138001,0.00243881,0.,0.0
 0087864,-0.00070832,0.,-0.26207431,0.02482912,0.,-0.01348384,-0.000873
 60,0.,0.65705616,-0.04133455,-0.00473511,0.,-0.00148769,0.00144050,0.,
 -0.00305050,-0.00451102,0.,0.02268643,-0.09914696,0.,0.02952965,0.0009
 6744,0.,0.06497221,0.77337148,0.,0.,0.00634780,0.,0.,-0.00748091,0.,0.
 ,0.01184185,0.,0.,-0.06158870,0.,0.,0.00302464,0.,0.,0.12936970,0.0016
 2481,0.00133802,0.,-0.00009660,-0.00130489,0.,0.00034079,-0.00042096,0
 .,-0.01291215,0.02929856,0.,-0.00525612,-0.00057248,0.,-0.11838931,0.1
 1148956,0.,0.12412045,-0.00086608,0.00120645,0.,0.00055416,0.00031538,
 0.,0.00009440,0.00020165,0.,-0.00121557,0.00128496,0.,-0.00074425,0.00
 064855,0.,0.11020724,-0.26608556,0.,-0.12021696,0.28650625,0.,0.,-0.00
 151927,0.,0.,0.00029209,0.,0.,-0.00027634,0.,0.,0.00294881,0.,0.,0.003
 57921,0.,0.,-0.03938615,0.,0.,0.02535011,0.00179875,0.01167193,0.,0.00
 010519,-0.00054262,0.,-0.00071912,-0.00127539,0.,-0.04337206,-0.044055
 10,0.,0.00162503,-0.00116841,0.,-0.19671991,-0.14967304,0.,0.01107208,
 0.01455245,0.,0.66155281,0.00883719,0.00789971,0.,-0.00004453,0.000207
 61,0.,0.00033042,0.00088967,0.,-0.02566918,-0.00481712,0.,0.00193254,0
 .00091661,0.,-0.15229287,-0.38272006,0.,-0.01577148,-0.02321713,0.,0.0
 6282875,0.77178320,0.,0.,0.00245325,0.,0.,-0.00004200,0.,0.,0.00020221
 ,0.,0.,0.00452911,0.,0.,-0.00159827,0.,0.,-0.05315606,0.,0.,0.00495479
 ,0.,0.,0.13030943,0.00009494,0.00000863,0.,-0.00013635,0.00013779,0.,0
 .00000050,0.00009414,0.,0.00113504,-0.00174626,0.,-0.00009224,0.000519
 50,0.,0.01107876,-0.01562313,0.,-0.00150777,-0.00290818,0.,-0.11932796
 ,0.11154447,0.,0.12543324,-0.00046314,0.00032270,0.,0.00015401,0.00024
 658,0.,-0.00007199,-0.00000134,0.,0.00236828,0.00109288,0.,-0.00138953
 ,0.00047239,0.,0.01462244,-0.02354797,0.,-0.00292813,-0.00295110,0.,0.
 11044878,-0.26452457,0.,-0.12046090,0.28520194,0.,0.,0.00010158,0.,0.,
 0.00033454,0.,0.,0.00016335,0.,0.,-0.00628899,0.,0.,0.00022330,0.,0.,0
 .00491321,0.,0.,0.00947374,0.,0.,-0.03998230,0.,0.,0.02594812,-0.00390
 969,-0.00564422,0.,-0.00005926,0.00008037,0.,0.00009114,-0.00009546,0.
 ,0.01441297,0.00558667,0.,-0.00002924,-0.00002214,0.,-0.04561476,-0.02
 867205,0.,0.00116599,0.00234930,0.,-0.26886868,0.02459581,0.,-0.013204
 89,-0.00097268,0.,0.66157739,-0.00397090,-0.00153432,0.,0.00008199,0.0
 0003862,0.,-0.00025028,-0.00047156,0.,0.00585211,-0.00336182,0.,-0.000
 50730,0.00052216,0.,-0.04515864,-0.00556500,0.,-0.00161771,0.00114084,
 0.,0.02459799,-0.09868424,0.,0.02927516,0.00149452,0.,0.06285844,0.771
 75712,0.,0.,0.00000122,0.,0.,0.00034170,0.,0.,-0.00151967,0.,0.,0.0117
 5385,0.,0.,-0.00020767,0.,0.,0.00484363,0.,0.,-0.00619027,0.,0.,-0.059
 59269,0.,0.,0.00289918,0.,0.,0.13031127,-0.00007868,-0.00006784,0.,-0.
 00003827,-0.00004995,0.,0.00000708,-0.00000665,0.,-0.00000522,-0.00049
 555,0.,0.00029149,-0.00012566,0.,0.00159459,0.00192044,0.,-0.00010322,
 -0.00135586,0.,-0.01320663,0.02927577,0.,-0.00514113,-0.00066000,0.,-0
 .11931595,0.11153505,0.,0.12542522,0.00013538,-0.00007528,0.,0.0000000
 2,0.00000055,0.,0.00001774,0.00001979,0.,-0.00005015,0.00047681,0.,-0.
 00011590,-0.00015489,0.,-0.00113219,0.00092835,0.,0.00049638,0.0004266
 1,0.,-0.00097188,0.00149244,0.,-0.00065969,0.00057244,0.,0.11043967,-0
 .26452589,0.,-0.12044899,0.28520657,0.,0.,-0.00003479,0.,0.,0.00000529
 ,0.,0.,0.00002522,0.,0.,-0.00023453,0.,0.,0.00009117,0.,0.,-0.00171189
 ,0.,0.,0.00025322,0.,0.,0.00289960,0.,0.,0.00382044,0.,0.,-0.03998347,
 0.,0.,0.02594918,0.00102488,0.00287572,0.,0.00006194,-0.00005647,0.,-0
 .00014787,-0.00011739,0.,-0.00572964,-0.00458931,0.,-0.00003606,0.0001
 0029,0.,0.00574514,0.01260331,0.,0.00012447,-0.00054280,0.,-0.04561173
 ,-0.04515621,0.,0.00159544,-0.00113092,0.,-0.19674583,-0.15231099,0.,0
 .01107777,0.01461991,0.,0.65703010,0.00235582,0.00225184,0.,0.00003109
 ,-0.00003929,0.,0.00003699,0.00011479,0.,-0.00573220,-0.00099722,0.,-0
 .00001412,-0.00013863,0.,0.01260145,0.00815797,0.,-0.00003802,0.000254
 49,0.,-0.02866511,-0.00556080,0.,0.00191947,0.00092835,0.,-0.14968706,
 -0.38269591,0.,-0.01562494,-0.02355013,0.,0.06496851,0.77337905,0.,0.,
 -0.00011257,0.,0.,0.00003482,0.,0.,-0.00006696,0.,0.,0.00030497,0.,0.,
 -0.00002385,0.,0.,0.00289792,0.,0.,-0.00005148,0.,0.,0.00484332,0.,0.,
 -0.00171171,0.,0.,-0.05315560,0.,0.,0.00491335,0.,0.,0.12936870,0.0000
 3004,0.00003504,0.,0.00000406,0.00000534,0.,0.00000259,0.00000260,0.,-
 0.00003987,0.00006145,0.,-0.00003924,0.00000407,0.,0.00012438,-0.00003
 802,0.,-0.00014103,0.00013967,0.,0.00116668,-0.00161608,0.,-0.00010374
 ,0.00049660,0.,0.01107288,-0.01577476,0.,-0.00150824,-0.00292847,0.,-0
 .11836238,0.11147303,0.,0.12408800,-0.00002515,-0.00002206,0.,0.000004
 54,0.00001081,0.,-0.00000389,-0.00000443,0.,0.00003195,0.00001632,0.,-
 0.00005495,0.00000286,0.,-0.00054271,0.00025417,0.,0.00013963,0.000265
 15,0.,0.00234853,0.00114128,0.,-0.00135541,0.00042635,0.,0.01454950,-0
 .02321487,0.,-0.00290807,-0.00295061,0.,0.11019164,-0.26612006,0.,-0.1
 2020138,0.28654116,0.,0.,0.00001426,0.,0.,0.00001738,0.,0.,-0.00008114
 ,0.,0.,0.00026126,0.,0.,0.00001085,0.,0.,-0.00005153,0.,0.,0.00034884,
 0.,0.,-0.00618973,0.,0.,0.00025324,0.,0.,0.00495444,0.,0.,0.00947380,0
 .,0.,-0.03938480,0.,0.,0.02534895,-0.00072172,-0.00159340,0.,-0.000031
 83,0.00003651,0.,0.00006552,0.00002283,0.,0.00308210,0.00179510,0.,0.0
 0006847,-0.00003952,0.,-0.00572979,-0.00573304,0.,-0.00003985,0.000031
 95,0.,0.01441335,0.00585256,0.,-0.00000547,-0.00005005,0.,-0.04338368,
 -0.02566873,0.,0.00113447,0.00236887,0.,-0.26204735,0.02270897,0.,-0.0
 1290695,-0.00121412,0.,0.65385749,-0.00101393,-0.00056805,0.,0.0000049
 9,0.00000273,0.,-0.00005426,-0.00008537,0.,0.00179460,-0.00021950,0.,-
 0.00004485,0.00009126,0.,-0.00458811,-0.00099664,0.,0.00006144,0.00001
 624,0.,0.00558337,-0.00336255,0.,-0.00049541,0.00047667,0.,-0.04405069
 ,-0.00481024,0.,-0.00174768,0.00109234,0.,0.02485475,-0.09915382,0.,0.
 02930049,0.00128202,0.,0.08036726,0.80078986,0.,0.,-0.00002038,0.,0.,-
 0.00011379,0.,0.,0.00033543,0.,0.,-0.00176723,0.,0.,0.00001795,0.,0.,0
 .00030503,0.,0.,0.00026132,0.,0.,0.01175378,0.,0.,-0.00023458,0.,0.,0.
 00452899,0.,0.,-0.00628950,0.,0.,-0.06158946,0.,0.,0.00294846,0.,0.,0.
 13189668,-0.00005677,0.00000922,0.,-0.00000032,-0.00000536,0.,-0.00000
 316,-0.00000537,0.,0.00006847,-0.00004484,0.,0.00000408,0.00000894,0.,
 -0.00003610,-0.00001407,0.,-0.00003923,-0.00005496,0.,-0.00002908,-0.0
 0050738,0.,0.00029147,-0.00011588,0.,0.00162459,0.00193326,0.,-0.00009
 243,-0.00138962,0.,-0.01348077,0.02953228,0.,-0.00525638,-0.00074354,0
 .,-0.11746410,0.11164285,0.,0.12334650,0.00007350,-0.00002220,0.,-0.00
 000339,0.00000342,0.,0.00000908,0.00000912,0.,-0.00003955,0.00009127,0
 .,0.00000894,-0.00001012,0.,0.00010034,-0.00013864,0.,0.00000408,0.000
 00287,0.,-0.00002215,0.00052234,0.,-0.00012572,-0.00015486,0.,-0.00116
 948,0.00091651,0.,0.00051936,0.00047272,0.,-0.00087095,0.00096143,0.,-
 0.00057134,0.00064870,0.,0.11048793,-0.26763322,0.,-0.11921338,0.28829
 878,0.,0.,-0.00001436,0.,0.,0.00000557,0.,0.,0.00000042,0.,0.,0.000017
 95,0.,0.,0.00000492,0.,0.,-0.00002385,0.,0.,0.00001086,0.,0.,-0.000207
 63,0.,0.,0.00009117,0.,0.,-0.00159837,0.,0.,0.00022335,0.,0.,0.0030248
 1,0.,0.,0.00357909,0.,0.,-0.04163730,0.,0.,0.02725011,-0.00010376,0.00
 056289,0.,0.00002092,-0.00001434,0.,-0.00006441,-0.00004871,0.,-0.0007
 2187,-0.00101413,0.,-0.00005678,0.00007347,0.,0.00102518,0.00235638,0.
 ,0.00003006,-0.00002517,0.,-0.00391059,-0.00397137,0.,-0.00007865,0.00
 013534,0.,0.00180142,0.00883920,0.,0.00009495,-0.00046322,0.,-0.036756
 76,-0.04132781,0.,0.00162524,-0.00086539,0.,-0.22906242,-0.18899768,0.
 ,0.01128941,0.01412525,0.,0.71423532,0.00056278,0.00067911,0.,0.000009
 33,-0.00001434,0.,-0.00000418,0.00001667,0.,-0.00159314,-0.00056810,0.
 ,0.00000923,-0.00002221,0.,0.00287527,0.00225159,0.,0.00003504,-0.0000
 2204,0.,-0.00564300,-0.00153355,0.,-0.00006788,-0.00007531,0.,0.011671
 67,0.00789690,0.,0.00000862,0.00032298,0.,-0.02716816,-0.00472272,0.,0
 .00133739,0.00120631,0.,-0.17390802,-0.40941674,0.,-0.01780252,-0.0225
 9486,0.,0.08713574,0.77054917,0.,0.,0.00003253,0.,0.,-0.00001008,0.,0.
 ,-0.00000272,0.,0.,-0.00002037,0.,0.,-0.00001436,0.,0.,-0.00011257,0.,
 0.,0.00001425,0.,0.,0.00000122,0.,0.,-0.00003480,0.,0.,0.00245319,0.,0
 .,0.00010160,0.,0.,0.00634742,0.,0.,-0.00151909,0.,0.,-0.04911915,0.,0
 .,0.00513484,0.,0.,0.10126602,0.00002091,0.00000932,0.,-0.00000029,0.0
 0000041,0.,0.00000305,0.00000199,0.,-0.00003182,0.00000499,0.,-0.00000
 032,-0.00000339,0.,0.00006192,0.00003108,0.,0.00000406,0.00000454,0.,-
 0.00005925,0.00008201,0.,-0.00003828,0.00000001,0.,0.00010503,-0.00004
 457,0.,-0.00013633,0.00015409,0.,0.00138028,-0.00148694,0.,-0.00009669
 ,0.00055436,0.,0.01184622,-0.01619568,0.,-0.00126307,-0.00304139,0.,-0
 .11382296,0.11165772,0.,0.11020173,-0.00001435,-0.00001435,0.,0.000000
 41,0.00000333,0.,-0.00000181,-0.00000057,0.,0.00003653,0.00000274,0.,-
 0.00000536,0.00000342,0.,-0.00005647,-0.00003931,0.,0.00000534,0.00001
 081,0.,0.00008038,0.00003867,0.,-0.00004994,0.00000055,0.,-0.00054256,
 0.00020749,0.,0.00013781,0.00024656,0.,0.00243837,0.00144062,0.,-0.001
 30464,0.00031528,0.,0.01393648,-0.02224444,0.,-0.00333158,-0.00266002,
 0.,0.10804350,-0.28457171,0.,-0.11792598,0.30494803,0.,0.,-0.00001008,
 0.,0.,-0.00001084,0.,0.,0.00002857,0.,0.,-0.00011380,0.,0.,0.00000557,
 0.,0.,0.00003484,0.,0.,0.00001739,0.,0.,0.00034169,0.,0.,0.00000527,0.
 ,0.,-0.00004206,0.,0.,0.00033455,0.,0.,-0.00748058,0.,0.,0.00029210,0.
 ,0.,0.00460614,0.,0.,0.01113376,0.,0.,-0.03324549,0.,0.,0.02188743,-0.
 00006443,-0.00000419,0.,0.00000305,-0.00000180,0.,-0.00001020,-0.00000
 808,0.,0.00006553,-0.00005428,0.,-0.00000317,0.00000908,0.,-0.00014791
 ,0.00003702,0.,0.00000259,-0.00000388,0.,0.00009110,-0.00025041,0.,0.0
 0000707,0.00001775,0.,-0.00071942,0.00033069,0.,0.00000053,-0.00007198
 ,0.,0.00087838,-0.00305141,0.,0.00034066,0.00009444,0.,-0.01307447,0.0
 0357855,0.,0.00109689,-0.00027112,0.,-0.34554430,0.01088411,0.,-0.0081
 7421,-0.00144614,0.,0.36525231,-0.00004870,0.00001666,0.,0.00000199,-0
 .00000057,0.,-0.00000808,-0.00000816,0.,0.00002283,-0.00008536,0.,-0.0
 0000538,0.00000912,0.,-0.00011737,0.00011478,0.,0.00000260,-0.00000443
 ,0.,-0.00009549,-0.00047150,0.,-0.00000664,0.00001978,0.,-0.00127508,0
 .00088970,0.,0.00009413,-0.00000137,0.,-0.00070931,-0.00450995,0.,-0.0
 0042098,0.00020162,0.,-0.02940159,0.00473946,0.,0.00010195,0.00128677,
 0.,0.01545604,-0.05938114,0.,0.02619741,0.00231291,0.,-0.00978835,0.05
 487167,0.,0.,-0.00000272,0.,0.,0.00002857,0.,0.,-0.00006414,0.,0.,0.00
 033544,0.,0.,0.00000042,0.,0.,-0.00006698,0.,0.,-0.00008115,0.,0.,-0.0
 0151970,0.,0.,0.00002523,0.,0.,0.00020232,0.,0.,0.00016342,0.,0.,0.011
 84169,0.,0.,-0.00027639,0.,0.,0.00411761,0.,0.,-0.00699536,0.,0.,-0.03
 127245,0.,0.,0.00221554,0.,0.,0.02134864\\-0.00003756,0.00000875,0.,0.
 00002693,-0.00000190,0.,0.00001854,0.00000538,0.,0.00000617,-0.0000405
 8,0.,-0.00001043,0.00002739,0.,-0.00001427,0.00010608,0.,0.00002839,-0
 .00003675,0.,0.00007609,-0.00009687,0.,-0.00002078,0.00003502,0.,-0.00
 007824,0.00009817,0.,0.00002176,-0.00003620,0.,0.00000798,-0.00010529,
 0.,-0.00002694,0.00003622,0.,-0.00000089,0.00004217,0.,0.00000975,-0.0
 0002867,0.,0.00003692,-0.00000902,0.,-0.00002562,0.00000221,0.,-0.0000
 1781,-0.00000611,0.\\\@


 A people that values its privileges above its principles soon loses both.
 -- Dwight D. Eisenhower
 Job cpu time:  0 days  0 hours  2 minutes 16.4 seconds.
 File lengths (MBytes):  RWF=     49 Int=      0 D2E=      0 Chk=      3 Scr=      1
 Normal termination of Gaussian 09 at Tue Mar  2 11:54:06 2021.
